
Running Job 1 of 1 C_FeABstar_enol_ctL_C_3sextet_SkS_b3lypD3bj_ccpVDZ_pcmH2O_opt.in
qchem C_FeABstar_enol_ctL_C_3sextet_SkS_b3lypD3bj_ccpVDZ_pcmH2O_opt.in_2568481.0 /data/scratch/C_FeABstar_enol_ctL_C_3sextet_SkS_b3lypD3bj_ccpVDZ_pcmH2O_opt20240124103852/ 0
/opt/qchem/6.0.1/exe/qcprog.exe_s C_FeABstar_enol_ctL_C_3sextet_SkS_b3lypD3bj_ccpVDZ_pcmH2O_opt.in_2568481.0 /data/scratch/C_FeABstar_enol_ctL_C_3sextet_SkS_b3lypD3bj_ccpVDZ_pcmH2O_opt20240124103852/
                  Welcome to Q-Chem
     A Quantum Leap Into The Future Of Chemistry


 Q-Chem 6.0, Q-Chem, Inc., Pleasanton, CA (2022)

 E. Epifanovsky,  A. T. B. Gilbert,  Xintian Feng,  Joonho Lee,  Yuezhi Mao,  
 N. Mardirossian,  P. Pokhilko,  A. White,  M. Wormit,  M. P. Coons,  
 A. L. Dempwolff,  Zhengting Gan,  D. Hait,  P. R. Horn,  L. D. Jacobson,  
 I. Kaliman,  J. Kussmann,  A. W. Lange,  Ka Un Lao,  D. S. Levine,  Jie Liu,  
 S. C. McKenzie,  A. F. Morrison,  K. Nanda,  F. Plasser,  D. R. Rehn,  
 M. L. Vidal,  Zhi-Qiang You,  Ying Zhu,  B. Alam,  B. Albrecht,  
 A. Aldossary,  E. Alguire,  J. H. Andersen,  V. Athavale,  D. Barton,  
 K. Begam,  A. Behn,  N. Bellonzi,  Y. A. Bernard,  E. J. Berquist,  
 H. Burton,  A. Carreras,  K. Carter-Fenk,  Romit Chakraborty,  
 Chandrima Chakravarty,  Junhan Chen,  A. D. Chien,  K. D. Closser,  
 V. Cofer-Shabica,  L. Cunha,  S. Dasgupta,  Jia Deng,  M. de Wergifosse,  
 M. Diedenhofen,  Hainam Do,  S. Ehlert,  Po-Tung Fang,  S. Fatehi,  
 Qingguo Feng,  T. Friedhoff,  B. Ganoe,  J. Gayvert,  Qinghui Ge,  
 G. Gidofalvi,  M. Goldey,  J. Gomes,  C. Gonzalez-Espinoza,  S. Gulania,  
 A. Gunina,  J. A. Gyamfi,  M. W. D. Hanson-Heine,  P. H. P. Harbach,  
 A. W. Hauser,  M. F. Herbst,  M. Hernandez Vera,  M. Hodecker,  
 Z. C. Holden,  S. Houck,  Xunkun Huang,  Kerwin Hui,  B. C. Huynh,  
 K. Ikeda,  M. Ivanov,  Hyunjun Ji,  Zuxin Jin,  Hanjie Jiang,  B. Kaduk,  
 S. Kaehler,  R. Kang,  K. Khistyaev,  Jaehoon Kim,  Yongbin Kim,  
 P. Klunzinger,  Z. Koczor-Benda,  Joong Hoon Koh,  D. Kosenkov,  
 Saikiran Kotaru,  L. Koulias,  T. Kowalczyk,  C. M. Krauter,  K. Kue,  
 A. Kunitsa,  T. Kus,  A. Landau,  K. V. Lawler,  D. Lefrancois,  S. Lehtola,  
 Rain Li,  Shaozhi Li,  Yi-Pei Li,  Jiashu Liang,  M. Liebenthal,  
 Hung-Hsuan Lin,  You-Sheng Lin,  Fenglai Liu,  Kuan-Yu Liu,  
 M. Loipersberger,  A. Luenser,  C. Malbon,  A. Manjanath,  P. Manohar,  
 E. Mansoor,  S. F. Manzer,  Shan-Ping Mao,  A. V. Marenich,  T. Markovich,  
 S. Mason,  F. Matz,  S. A. Maurer,  P. F. McLaughlin,  M. F. S. J. Menger,  
 J.-M. Mewes,  S. A. Mewes,  P. Morgante,  Mohammad Mostafanejad,  
 J. W. Mullinax,  K. J. Oosterbaan,  G. Paran,  V. Parravicini,  
 Alexander C. Paul,  Suranjan K. Paul,  F. Pavosevic,  Zheng Pei,  S. Prager,  
 E. I. Proynov,  E. Ramos,  B. Rana,  A. E. Rask,  A. Rettig,  R. M. Richard,  
 F. Rob,  E. Rossomme,  T. Scheele,  M. Scheurer,  M. Schneider,  
 P. E. Schneider,  N. Sergueev,  S. M. Sharada,  Hengyuan Shen,  
 W. Skomorowski,  D. W. Small,  C. J. Stein,  Yingli Su,  Yu-Chuan Su,  
 E. J. Sundstrom,  Zhen Tao,  J. Thirman,  Hung-Yi Tsai,  T. Tsuchimochi,  
 N. M. Tubman,  C. Utku,  S. P. Veccham,  O. Vydrov,  J. Wenzel,  
 Jonathan Wong,  J. Witte,  A. Yamada,  Chou-Hsun Yang,  Kun Yao,  
 S. Yeganeh,  S. R. Yost,  A. Zech,  F. Zeller,  Igor Ying Zhang,  
 Xing Zhang,  Yu Zhang,  D. Zuev,  A. Aspuru-Guzik,  A. T. Bell,  
 N. A. Besley,  K. B. Bravaya,  B. R. Brooks,  D. Casanova,  Jeng-Da Chai,  
 Hsing-Ta Chen,  S. Coriani,  C. J. Cramer,  A. E. DePrince, III,  
 R. A. DiStasio Jr.,  A. Dreuw,  B. D. Dunietz,  T. R. Furlani,  
 W. A. Goddard III,  S. Grimme,  S. Hammes-Schiffer,  T. Head-Gordon,  
 W. J. Hehre,  Chao-Ping Hsu,  T.-C. Jagau,  Yousung Jung,  A. Klamt,  
 Jing Kong,  D. S. Lambrecht,  Xiangyuan Li,  WanZhen Liang,  N. J. Mayhall,  
 C. W. McCurdy,  J. B. Neaton,  T. Neudecker,  C. Ochsenfeld,  
 J. A. Parkhill,  R. Peverati,  V. A. Rassolov,  Haisheng Ren,  Yihan Shao,  
 L. V. Slipchenko,  R. P. Steele,  J. E. Subotnik,  A. J. W. Thom,  
 A. Tkatchenko,  D. G. Truhlar,  T. Van Voorhis,  Fan Wang,  
 T. A. Wesolowski,  K. B. Whaley,  H. L. Woodcock III,  P. M. Zimmerman,  
 S. Faraji,  P. M. W. Gill,  M. Head-Gordon,  J. M. Herbert,  A. I. Krylov

 Contributors to earlier versions of Q-Chem not listed above: 
 R. D. Adamson,  B. Austin,  R. Baer,  J. Baker,  G. J. O. Beran,  
 K. Brandhorst,  S. T. Brown,  E. F. C. Byrd,  Arup K. Chakraborty,  
 G. K. L. Chan,  Chun-Min Chang,  Yunqing Chen,  C.-L. Cheng,  
 Siu Hung Chien,  D. M. Chipman,  D. L. Crittenden,  H. Dachsel,  
 R. J. Doerksen,  A. D. Dutoi,  R. G. Edgar,  J. Fosso-Tande,  
 L. Fusti-Molnar,  D. Ghosh,  A. Ghysels,  A. Golubeva-Zadorozhnaya,  
 J. Gonthier,  M. S. Gordon,  S. R. Gwaltney,  G. Hawkins,  J. E. Herr,  
 A. Heyden,  S. Hirata,  E. G. Hohenstein,  G. Kedziora,  F. J. Keil,  
 C. Kelley,  Jihan Kim,  R. A. King,  R. Z. Khaliullin,  P. P. Korambath,  
 W. Kurlancheek,  A. Laurent,  A. M. Lee,  M. S. Lee,  S. V. Levchenko,  
 Ching Yeh Lin,  D. Liotard,  E. Livshits,  R. C. Lochan,  I. Lotan,  
 L. A. Martinez-Martinez,  P. E. Maslen,  N. Nair,  D. P. O'Neill,  
 D. Neuhauser,  E. Neuscamman,  C. M. Oana,  R. Olivares-Amaya,  R. Olson,  
 T. M. Perrine,  B. Peters,  P. A. Pieniazek,  A. Prociuk,  Y. M. Rhee,  
 J. Ritchie,  M. A. Rohrdanz,  E. Rosta,  N. J. Russ,  H. F. Schaefer III,  
 M. W. Schmidt,  N. E. Schultz,  S. Sharma,  N. Shenvi,  C. D. Sherrill,  
 A. C. Simmonett,  A. Sodt,  T. Stein,  D. Stuck,  K. S. Thanthiriwatte,  
 V. Vanovschi,  L. Vogt,  Tao Wang,  A. Warshel,  M. A. Watson,  
 C. F. Williams,  Q. Wu,  X. Xu,  Jun Yang,  W. Zhang,  Yan Zhao

   Please cite Q-Chem as follows:
  "Software for the frontiers of quantum chemistry:
   An overview of developments in the Q-Chem 5 package"
   J. Chem. Phys. 155, 084801 (2021)
   https://doi.org/10.1063/5.0055522 (open access)

 Q-Chem 6.0.2 for Intel X86 EM64T Linux

 Parts of Q-Chem use Armadillo 9.900.5 (Nocturnal Misbehaviour).
 http://arma.sourceforge.net/

 Q-Chem begins on Wed Jan 24 10:38:53 2024  

 Host: 
0

     Scratch files written to /data/scratch/C_FeABstar_enol_ctL_C_3sextet_SkS_b3lypD3bj_ccpVDZ_pcmH2O_opt20240124103852//
 Dec722 |scratch|qcdevops|jenkins|workspace|build_RNUM 8907   
 Processing $rem in /opt/qchem/6.0.1/config/preferences:
 Processing $rem in /home/sgardner/.qchemrc:
 Symmetry turned off for PCM/SM12/SMD calculation

 Checking the input file for inconsistencies... 	...done.

--------------------------------------------------------------
User input:
--------------------------------------------------------------
$molecule
-2 6
C   -2.1355847    1.2126878   -2.0299804
C   -4.0247187   -0.9495601    1.6937807
H   -3.5241038   -0.8472563    2.6805621
N   -3.1299068   -1.6772244    0.7905523
H   -3.4178074   -2.6044786    0.4449898
C   -5.3135735   -1.7263623    1.9279376
O   -6.2282608   -1.2476690    2.7912860
C   -1.8407065   -1.2253178    0.3754344
O   -1.4323093    0.0235788    0.6252011
N   -2.3653800    2.1409140   -1.0534408
C   -3.6758155    2.8022295   -0.8853022
H   -3.8403624    3.5633421   -1.6772135
H   -3.6595654    3.3419124    0.0852660
C   -1.0339570   -2.0830330   -0.2373930
H   -1.3974366   -3.0951820   -0.3902985
C    0.3738287   -1.8280212   -0.5813143
C    1.1488230   -3.1137470   -0.7904378
H    0.6872403   -3.6878429   -1.6246926
H    1.0452225   -3.7164832    0.1394488
C    2.6041369   -2.9358232   -1.0414355
O    3.0993049   -3.4256118   -2.0457566
N    3.3539623   -2.2479584   -0.1406814
H    2.8636886   -1.9018616    0.6972453
C    5.3382609   -1.2380924    0.8861024
O    6.5183766   -0.9314278    0.9082007
N    2.2231382    2.0969649   -0.5298318
C    2.0072184    1.8461060    0.8036568
C    3.0480469    2.1637584    1.8749841
H    2.6114502    2.7885053    2.6807567
H    3.4446513    1.2344657    2.3269426
H    3.9219559    2.7338371    1.4942291
C    3.5204507    2.5115056   -1.0806317
H    3.4031495    2.7590977   -2.1581529
H    3.8932153    3.4367490   -0.5889465
C    4.5674602    1.3716954   -0.9840671
H    5.5352955    1.7063155   -1.4241752
H    4.7533054    1.1267803    0.0732654
C    4.0904893    0.1382043   -1.7661733
H    3.0642303   -0.1322363   -1.4707182
H    4.0480788    0.4309547   -2.8372204
C    4.9765233   -1.1193107   -1.6362648
H    4.6852846   -1.7759985   -2.4787690
H    6.0456605   -0.8805197   -1.8104735
C    4.7692348   -1.9443894   -0.3282202
H    5.3299134   -2.9009840   -0.4240934
C   -4.9492960    1.8585535   -0.8869661
H   -5.8017321    2.3995169   -0.4219818
H   -5.2901329    1.6582555   -1.9212948
C   -3.0197306    1.0124220   -3.2346997
H   -3.7712165    1.8127094   -3.3536241
H   -2.3918430    1.0899764   -4.1459120
C   -4.8129538    0.4595581   -0.2677050
H   -4.0938657   -0.1100372   -0.8845040
H   -5.7841049   -0.0826116   -0.3379375
C   -4.3395240    0.4744921    1.1794434
H   -3.4233654    1.0847290    1.2421020
H   -5.0904855    0.9731821    1.8297715
O   -5.5373160   -2.7859331    1.3610427
O    4.5751570   -0.9659362    1.9638844
O    0.8839809   -0.6981658   -0.6059444
Fe   -0.1258656    0.9215868   -0.4036435
O   -1.1548610    0.5021150   -1.9057668
O   -1.3411173    2.4108177   -0.1813872
O    1.1924902    1.9170910   -1.3884754
O    0.9258333    1.3402002    1.1190119
H   -3.5040101    0.0156825   -3.2136136
$end

$rem
BASIS  =  gen
DFT_D  =  D3_BJ
GUI  =  2
JOB_TYPE  =  Optimization
METHOD  =  B3LYP
SCF_CONVERGENCE  =  8
SOLVENT_METHOD  =  PCM
GEOM_OPT_MAX_CYCLES = 200
$end

$pcm
THEORY  CPCM
$end

$solvent
DIELECTRIC  78.39
$end

$van_der_waals
26   2.44
$end

!----------------------------------------------------------------------
! Basis Set Exchange
! Basis set: cc-pVDZ
!----------------------------------------------------------------------

$rem
BASIS GEN
PURECART 11
$end

$basis
H     0
S   4   1.00
1.301000D+01           1.968500D-02
1.962000D+00           1.379770D-01
4.446000D-01           4.781480D-01
1.220000D-01           5.012400D-01
S   1   1.00
1.220000D-01           1.000000D+00
P   1   1.00
7.270000D-01           1.0000000
****
C     0
S   9   1.00
6.665000D+03           6.920000D-04
1.000000D+03           5.329000D-03
2.280000D+02           2.707700D-02
6.471000D+01           1.017180D-01
2.106000D+01           2.747400D-01
7.495000D+00           4.485640D-01
2.797000D+00           2.850740D-01
5.215000D-01           1.520400D-02
1.596000D-01          -3.191000D-03
S   9   1.00
6.665000D+03          -1.460000D-04
1.000000D+03          -1.154000D-03
2.280000D+02          -5.725000D-03
6.471000D+01          -2.331200D-02
2.106000D+01          -6.395500D-02
7.495000D+00          -1.499810D-01
2.797000D+00          -1.272620D-01
5.215000D-01           5.445290D-01
1.596000D-01           5.804960D-01
S   1   1.00
1.596000D-01           1.000000D+00
P   4   1.00
9.439000D+00           3.810900D-02
2.002000D+00           2.094800D-01
5.456000D-01           5.085570D-01
1.517000D-01           4.688420D-01
P   1   1.00
1.517000D-01           1.000000D+00
D   1   1.00
5.500000D-01           1.0000000
****
N     0
S   9   1.00
9.046000D+03           7.000000D-04
1.357000D+03           5.389000D-03
3.093000D+02           2.740600D-02
8.773000D+01           1.032070D-01
2.856000D+01           2.787230D-01
1.021000D+01           4.485400D-01
3.838000D+00           2.782380D-01
7.466000D-01           1.544000D-02
2.248000D-01          -2.864000D-03
S   9   1.00
9.046000D+03          -1.530000D-04
1.357000D+03          -1.208000D-03
3.093000D+02          -5.992000D-03
8.773000D+01          -2.454400D-02
2.856000D+01          -6.745900D-02
1.021000D+01          -1.580780D-01
3.838000D+00          -1.218310D-01
7.466000D-01           5.490030D-01
2.248000D-01           5.788150D-01
S   1   1.00
2.248000D-01           1.000000D+00
P   4   1.00
1.355000D+01           3.991900D-02
2.917000D+00           2.171690D-01
7.973000D-01           5.103190D-01
2.185000D-01           4.622140D-01
P   1   1.00
2.185000D-01           1.000000D+00
D   1   1.00
8.170000D-01           1.0000000
****
O     0
S   9   1.00
1.172000D+04           7.100000D-04
1.759000D+03           5.470000D-03
4.008000D+02           2.783700D-02
1.137000D+02           1.048000D-01
3.703000D+01           2.830620D-01
1.327000D+01           4.487190D-01
5.025000D+00           2.709520D-01
1.013000D+00           1.545800D-02
3.023000D-01          -2.585000D-03
S   9   1.00
1.172000D+04          -1.600000D-04
1.759000D+03          -1.263000D-03
4.008000D+02          -6.267000D-03
1.137000D+02          -2.571600D-02
3.703000D+01          -7.092400D-02
1.327000D+01          -1.654110D-01
5.025000D+00          -1.169550D-01
1.013000D+00           5.573680D-01
3.023000D-01           5.727590D-01
S   1   1.00
3.023000D-01           1.000000D+00
P   4   1.00
1.770000D+01           4.301800D-02
3.854000D+00           2.289130D-01
1.046000D+00           5.087280D-01
2.753000D-01           4.605310D-01
P   1   1.00
2.753000D-01           1.000000D+00
D   1   1.00
1.185000D+00           1.0000000
****
Fe     0
S   20   1.00
4.316265D+06           8.048803D-06
6.463424D+05           6.258306D-05
1.470897D+05           3.290239D-04
4.166152D+04           1.387355D-03
1.359077D+04           5.023256D-03
4.905750D+03           1.610140D-02
1.912746D+03           4.590034D-02
7.926043D+02           1.136154D-01
3.448065D+02           2.283869D-01
1.558999D+02           3.221159D-01
7.223091D+01           2.383661D-01
3.272506D+01           7.404667D-02
1.566762D+01           9.214197D-02
7.503483D+00           9.339790D-02
3.312223D+00           1.573965D-02
1.558471D+00          -4.186682D-04
6.839140D-01           5.376318D-05
1.467570D-01          -3.816654D-05
7.058300D-02           4.319603D-05
3.144900D-02          -3.401019D-06
S   20   1.00
4.316265D+06          -4.155954D-06
6.463424D+05          -3.231401D-05
1.470897D+05          -1.699525D-04
4.166152D+04          -7.171369D-04
1.359077D+04          -2.603625D-03
4.905750D+03          -8.399109D-03
1.912746D+03          -2.434109D-02
7.926043D+02          -6.251948D-02
3.448065D+02          -1.365929D-01
1.558999D+02          -2.312707D-01
7.223091D+01          -2.383734D-01
3.272506D+01           3.123837D-02
1.566762D+01           5.086818D-01
7.503483D+00           4.987695D-01
3.312223D+00           9.033552D-02
1.558471D+00          -6.005337D-03
6.839140D-01           2.312454D-04
1.467570D-01          -5.643680D-04
7.058300D-02           4.992260D-04
3.144900D-02          -1.015293D-04
S   20   1.00
4.316265D+06           9.532178D-07
6.463424D+05           7.414605D-06
1.470897D+05           3.898393D-05
4.166152D+04           1.647152D-04
1.359077D+04           5.985980D-04
4.905750D+03           1.942390D-03
1.912746D+03           5.687237D-03
7.926043D+02           1.501329D-02
3.448065D+02           3.452455D-02
1.558999D+02           6.495820D-02
7.223091D+01           7.716194D-02
3.272506D+01          -1.873411D-02
1.566762D+01          -3.009185D-01
7.503483D+00          -4.554661D-01
3.312223D+00           1.286463D-01
1.558471D+00           7.183316D-01
6.839140D-01           4.051743D-01
1.467570D-01           2.168227D-02
7.058300D-02          -8.343566D-03
3.144900D-02           3.658979D-03
S   20   1.00
4.316265D+06          -2.063008D-07
6.463424D+05          -1.604169D-06
1.470897D+05          -8.438437D-06
4.166152D+04          -3.563151D-05
1.359077D+04          -1.295998D-04
4.905750D+03          -4.201534D-04
1.912746D+03          -1.231954D-03
7.926043D+02          -3.248922D-03
3.448065D+02          -7.493717D-03
1.558999D+02          -1.410102D-02
7.223091D+01          -1.691600D-02
3.272506D+01           4.218996D-03
1.566762D+01           6.833810D-02
7.503483D+00           1.098201D-01
3.312223D+00          -4.009005D-02
1.558471D+00          -2.174739D-01
6.839140D-01          -2.465135D-01
1.467570D-01           2.731435D-01
7.058300D-02           5.748321D-01
3.144900D-02           3.012713D-01
S   20   1.00
4.316265D+06          -4.009367D-07
6.463424D+05          -3.189255D-06
1.470897D+05          -1.623079D-05
4.166152D+04          -7.157920D-05
1.359077D+04          -2.463958D-04
4.905750D+03          -8.544907D-04
1.912746D+03          -2.307593D-03
7.926043D+02          -6.728292D-03
3.448065D+02          -1.366165D-02
1.558999D+02          -3.062240D-02
7.223091D+01          -2.631137D-02
3.272506D+01          -9.760183D-03
1.566762D+01           1.801906D-01
7.503483D+00           1.529634D-01
3.312223D+00           5.505413D-02
1.558471D+00          -9.551364D-01
6.839140D-01           2.586813D-01
1.467570D-01           1.834049D+00
7.058300D-02          -9.333240D-01
3.144900D-02          -6.981605D-01
S   1   1.00
3.144900D-02           1.000000D+00
P   16   1.00
1.774569D+04           4.100000D-05
4.200721D+03           3.690000D-04
1.364429D+03           2.129000D-03
5.220806D+02           9.369000D-03
2.214595D+02           3.309700D-02
1.009096D+02           9.443100D-02
4.840115D+01           2.080770D-01
2.398536D+01           3.323330D-01
1.218250D+01           3.329870D-01
6.242298D+00           1.568430D-01
3.110944D+00           2.154900D-02
1.509958D+00          -2.095000D-03
7.108450D-01          -1.739000D-03
2.731900D-01          -3.000000D-04
1.042330D-01           2.900000D-05
3.829100D-02          -1.100000D-05
P   16   1.00
1.774569D+04          -1.500000D-05
4.200721D+03          -1.300000D-04
1.364429D+03          -7.510000D-04
5.220806D+02          -3.329000D-03
2.214595D+02          -1.191200D-02
1.009096D+02          -3.493300D-02
4.840115D+01          -7.998900D-02
2.398536D+01          -1.346360D-01
1.218250D+01          -1.385980D-01
6.242298D+00           3.027800D-02
3.110944D+00           3.332160D-01
1.509958D+00           4.561530D-01
7.108450D-01           2.850510D-01
2.731900D-01           4.614400D-02
1.042330D-01          -3.249000D-03
3.829100D-02           1.357000D-03
P   16   1.00
1.774569D+04           5.000000D-06
4.200721D+03           4.200000D-05
1.364429D+03           2.410000D-04
5.220806D+02           1.085000D-03
2.214595D+02           3.831000D-03
1.009096D+02           1.142300D-02
4.840115D+01           2.579200D-02
2.398536D+01           4.481800D-02
1.218250D+01           4.459800D-02
6.242298D+00          -1.117700D-02
3.110944D+00          -1.381340D-01
1.509958D+00          -1.882850D-01
7.108450D-01          -1.073990D-01
2.731900D-01           4.448630D-01
1.042330D-01           6.402390D-01
3.829100D-02           6.445700D-02
P   16   1.00
1.774569D+04           3.000000D-06
4.200721D+03           2.900000D-05
1.364429D+03           1.650000D-04
5.220806D+02           7.340000D-04
2.214595D+02           2.626000D-03
1.009096D+02           7.725000D-03
4.840115D+01           1.773300D-02
2.398536D+01           3.005500D-02
1.218250D+01           3.109400D-02
6.242298D+00          -1.004800D-02
3.110944D+00          -8.830600D-02
1.509958D+00          -1.298240D-01
7.108450D-01          -7.693700D-02
2.731900D-01           2.126610D-01
1.042330D-01           5.730610D-01
3.829100D-02           3.696510D-01
P   1   1.00
3.829100D-02           1.000000D+00
D   8   1.00
1.133440D+02           3.530000D-03
3.364140D+01           2.578400D-02
1.233100D+01           9.911900D-02
4.994780D+00           2.390730D-01
2.072800D+00           3.571990D-01
8.307530D-01           3.621880D-01
3.091780D-01           2.364610D-01
1.001300D-01           6.011800D-02
D   8   1.00
1.133440D+02          -3.890000D-03
3.364140D+01          -2.844200D-02
1.233100D+01          -1.124290D-01
4.994780D+00          -2.742570D-01
2.072800D+00          -3.155460D-01
8.307530D-01           5.710900D-02
3.091780D-01           5.636040D-01
1.001300D-01           3.846370D-01
D   1   1.00
1.001300D-01           1.000000D+00
F   2   1.00
3.224300D+00           4.222490D-01
7.758000D-01           7.714680D-01
****
$end


--------------------------------------------------------------
 Adding empirical dispersion correction 
 ----------------------------------------------------------------
 Doing -D3(BJ) with
 s6  =   1.00000
 s8  =   1.98890
 a1  =   0.39810
 a2  =   4.42110
 -D3 energy without 3body term =     -0.1584150592 hartrees
 ----------------------------------------------------------------
             Standard Nuclear Orientation (Angstroms)
    I     Atom           X                Y                Z
 ----------------------------------------------------------------
    1      C      -2.1355847000     1.2126878000    -2.0299804000
    2      C      -4.0247187000    -0.9495601000     1.6937807000
    3      H      -3.5241038000    -0.8472563000     2.6805621000
    4      N      -3.1299068000    -1.6772244000     0.7905523000
    5      H      -3.4178074000    -2.6044786000     0.4449898000
    6      C      -5.3135735000    -1.7263623000     1.9279376000
    7      O      -6.2282608000    -1.2476690000     2.7912860000
    8      C      -1.8407065000    -1.2253178000     0.3754344000
    9      O      -1.4323093000     0.0235788000     0.6252011000
   10      N      -2.3653800000     2.1409140000    -1.0534408000
   11      C      -3.6758155000     2.8022295000    -0.8853022000
   12      H      -3.8403624000     3.5633421000    -1.6772135000
   13      H      -3.6595654000     3.3419124000     0.0852660000
   14      C      -1.0339570000    -2.0830330000    -0.2373930000
   15      H      -1.3974366000    -3.0951820000    -0.3902985000
   16      C       0.3738287000    -1.8280212000    -0.5813143000
   17      C       1.1488230000    -3.1137470000    -0.7904378000
   18      H       0.6872403000    -3.6878429000    -1.6246926000
   19      H       1.0452225000    -3.7164832000     0.1394488000
   20      C       2.6041369000    -2.9358232000    -1.0414355000
   21      O       3.0993049000    -3.4256118000    -2.0457566000
   22      N       3.3539623000    -2.2479584000    -0.1406814000
   23      H       2.8636886000    -1.9018616000     0.6972453000
   24      C       5.3382609000    -1.2380924000     0.8861024000
   25      O       6.5183766000    -0.9314278000     0.9082007000
   26      N       2.2231382000     2.0969649000    -0.5298318000
   27      C       2.0072184000     1.8461060000     0.8036568000
   28      C       3.0480469000     2.1637584000     1.8749841000
   29      H       2.6114502000     2.7885053000     2.6807567000
   30      H       3.4446513000     1.2344657000     2.3269426000
   31      H       3.9219559000     2.7338371000     1.4942291000
   32      C       3.5204507000     2.5115056000    -1.0806317000
   33      H       3.4031495000     2.7590977000    -2.1581529000
   34      H       3.8932153000     3.4367490000    -0.5889465000
   35      C       4.5674602000     1.3716954000    -0.9840671000
   36      H       5.5352955000     1.7063155000    -1.4241752000
   37      H       4.7533054000     1.1267803000     0.0732654000
   38      C       4.0904893000     0.1382043000    -1.7661733000
   39      H       3.0642303000    -0.1322363000    -1.4707182000
   40      H       4.0480788000     0.4309547000    -2.8372204000
   41      C       4.9765233000    -1.1193107000    -1.6362648000
   42      H       4.6852846000    -1.7759985000    -2.4787690000
   43      H       6.0456605000    -0.8805197000    -1.8104735000
   44      C       4.7692348000    -1.9443894000    -0.3282202000
   45      H       5.3299134000    -2.9009840000    -0.4240934000
   46      C      -4.9492960000     1.8585535000    -0.8869661000
   47      H      -5.8017321000     2.3995169000    -0.4219818000
   48      H      -5.2901329000     1.6582555000    -1.9212948000
   49      C      -3.0197306000     1.0124220000    -3.2346997000
   50      H      -3.7712165000     1.8127094000    -3.3536241000
   51      H      -2.3918430000     1.0899764000    -4.1459120000
   52      C      -4.8129538000     0.4595581000    -0.2677050000
   53      H      -4.0938657000    -0.1100372000    -0.8845040000
   54      H      -5.7841049000    -0.0826116000    -0.3379375000
   55      C      -4.3395240000     0.4744921000     1.1794434000
   56      H      -3.4233654000     1.0847290000     1.2421020000
   57      H      -5.0904855000     0.9731821000     1.8297715000
   58      O      -5.5373160000    -2.7859331000     1.3610427000
   59      O       4.5751570000    -0.9659362000     1.9638844000
   60      O       0.8839809000    -0.6981658000    -0.6059444000
   61      Fe     -0.1258656000     0.9215868000    -0.4036435000
   62      O      -1.1548610000     0.5021150000    -1.9057668000
   63      O      -1.3411173000     2.4108177000    -0.1813872000
   64      O       1.1924902000     1.9170910000    -1.3884754000
   65      O       0.9258333000     1.3402002000     1.1190119000
   66      H      -3.5040101000     0.0156825000    -3.2136136000
 ----------------------------------------------------------------
 Nuclear Repulsion Energy =        5410.66956723 hartrees
 There are      152 alpha and      147 beta electrons
 Requested basis set is non-standard
 There are 318 shells and 692 basis functions

 Total QAlloc Memory Limit   8000 MB
 Mega-Array Size       188 MB
 MEM_STATIC part       192 MB

 -----------------------------------------------------------------------
                STARTING GEOMETRY OPTIMIZER USING LIBOPT3
                by Peter F. McLaughlin, Yu Zhang, Evgeny Epifanovsky
 -----------------------------------------------------------------------

              Initial Energy and Gradient Calculation
   -- Checking Topology for Ill-Behaving Coordinates --

 -------------------------------------------
   Coordinate       |  Removed | Additions 
 -------------------------------------------
	Bonds                     0          0
	Angles                    3          0
	Torsions                  6          6
	Co-Linear Type5s          0          6
	Co-Linear Type6s          0          6
 -------------------------------------------

 ** Ill-Behaving Topology Definitions (No action needed.) **

  Ill-Defined Angles Removed: 
   9  61  64,  60  61  63,  62  61  65

  Ill-Defined Torsions Removed: 
   1  62  61  65,   8   9  61  64,   9  61  64  26,  16  60  61  63,  60  61  63  10
  62  61  65  27

     Done Checking Topology
 Adding empirical dispersion correction 
 ----------------------------------------------------------------
 Doing -D3(BJ) with
 s6  =   1.00000
 s8  =   1.98890
 a1  =   0.39810
 a2  =   4.42110
 -D3 energy without 3body term =     -0.1584150592 hartrees
 ----------------------------------------------------------------
             Standard Nuclear Orientation (Angstroms)
    I     Atom           X                Y                Z
 ----------------------------------------------------------------
    1      C      -2.1355847000     1.2126878000    -2.0299804000
    2      C      -4.0247187000    -0.9495601000     1.6937807000
    3      H      -3.5241038000    -0.8472563000     2.6805621000
    4      N      -3.1299068000    -1.6772244000     0.7905523000
    5      H      -3.4178074000    -2.6044786000     0.4449898000
    6      C      -5.3135735000    -1.7263623000     1.9279376000
    7      O      -6.2282608000    -1.2476690000     2.7912860000
    8      C      -1.8407065000    -1.2253178000     0.3754344000
    9      O      -1.4323093000     0.0235788000     0.6252011000
   10      N      -2.3653800000     2.1409140000    -1.0534408000
   11      C      -3.6758155000     2.8022295000    -0.8853022000
   12      H      -3.8403624000     3.5633421000    -1.6772135000
   13      H      -3.6595654000     3.3419124000     0.0852660000
   14      C      -1.0339570000    -2.0830330000    -0.2373930000
   15      H      -1.3974366000    -3.0951820000    -0.3902985000
   16      C       0.3738287000    -1.8280212000    -0.5813143000
   17      C       1.1488230000    -3.1137470000    -0.7904378000
   18      H       0.6872403000    -3.6878429000    -1.6246926000
   19      H       1.0452225000    -3.7164832000     0.1394488000
   20      C       2.6041369000    -2.9358232000    -1.0414355000
   21      O       3.0993049000    -3.4256118000    -2.0457566000
   22      N       3.3539623000    -2.2479584000    -0.1406814000
   23      H       2.8636886000    -1.9018616000     0.6972453000
   24      C       5.3382609000    -1.2380924000     0.8861024000
   25      O       6.5183766000    -0.9314278000     0.9082007000
   26      N       2.2231382000     2.0969649000    -0.5298318000
   27      C       2.0072184000     1.8461060000     0.8036568000
   28      C       3.0480469000     2.1637584000     1.8749841000
   29      H       2.6114502000     2.7885053000     2.6807567000
   30      H       3.4446513000     1.2344657000     2.3269426000
   31      H       3.9219559000     2.7338371000     1.4942291000
   32      C       3.5204507000     2.5115056000    -1.0806317000
   33      H       3.4031495000     2.7590977000    -2.1581529000
   34      H       3.8932153000     3.4367490000    -0.5889465000
   35      C       4.5674602000     1.3716954000    -0.9840671000
   36      H       5.5352955000     1.7063155000    -1.4241752000
   37      H       4.7533054000     1.1267803000     0.0732654000
   38      C       4.0904893000     0.1382043000    -1.7661733000
   39      H       3.0642303000    -0.1322363000    -1.4707182000
   40      H       4.0480788000     0.4309547000    -2.8372204000
   41      C       4.9765233000    -1.1193107000    -1.6362648000
   42      H       4.6852846000    -1.7759985000    -2.4787690000
   43      H       6.0456605000    -0.8805197000    -1.8104735000
   44      C       4.7692348000    -1.9443894000    -0.3282202000
   45      H       5.3299134000    -2.9009840000    -0.4240934000
   46      C      -4.9492960000     1.8585535000    -0.8869661000
   47      H      -5.8017321000     2.3995169000    -0.4219818000
   48      H      -5.2901329000     1.6582555000    -1.9212948000
   49      C      -3.0197306000     1.0124220000    -3.2346997000
   50      H      -3.7712165000     1.8127094000    -3.3536241000
   51      H      -2.3918430000     1.0899764000    -4.1459120000
   52      C      -4.8129538000     0.4595581000    -0.2677050000
   53      H      -4.0938657000    -0.1100372000    -0.8845040000
   54      H      -5.7841049000    -0.0826116000    -0.3379375000
   55      C      -4.3395240000     0.4744921000     1.1794434000
   56      H      -3.4233654000     1.0847290000     1.2421020000
   57      H      -5.0904855000     0.9731821000     1.8297715000
   58      O      -5.5373160000    -2.7859331000     1.3610427000
   59      O       4.5751570000    -0.9659362000     1.9638844000
   60      O       0.8839809000    -0.6981658000    -0.6059444000
   61      Fe     -0.1258656000     0.9215868000    -0.4036435000
   62      O      -1.1548610000     0.5021150000    -1.9057668000
   63      O      -1.3411173000     2.4108177000    -0.1813872000
   64      O       1.1924902000     1.9170910000    -1.3884754000
   65      O       0.9258333000     1.3402002000     1.1190119000
   66      H      -3.5040101000     0.0156825000    -3.2136136000
 ----------------------------------------------------------------
 Nuclear Repulsion Energy =        5410.66956723 hartrees
 There are      152 alpha and      147 beta electrons
 Using C-PCM dielectric factor f(eps) = (eps-1)/eps = 0.987243
No default van der Waals radius is available for Z = 26
	Found R = 2.4400 A in the $van_der_waals section
 Discretize the solute cavity surface with Lebedev spheres
	Using 110 Lebedev grid points for each H atom
	Using 194 Lebedev grid points for other atoms
	Atomic van der Waals radii (Bondi set) will be scaled by 1.20
 Using smooth SwiG surface discretization
 Remove points where switching function is < 1.0e-08
 Keep 3785 surface tesserae and discard 6583 interior tesserae
 Molecular Surface Area = 485.513 Angst**2

 Requested basis set is non-standard
 There are 318 shells and 692 basis functions
 A cutoff of  1.0D-12 yielded  39658 shell pairs
 There are    173754 function pairs (    193348 Cartesian)
 Smallest overlap matrix eigenvalue = 1.72E-04

 Scale SEOQF with 1.000000e-02/1.000000e-01/1.000000e-01

 Standard Electronic Orientation quadrupole field applied
 Nucleus-field energy     =     0.0000000215 hartrees
 ================ Generating on-the-fly SAD Guess ================
 Attempting to make child job directory: /data/scratch/C_FeABstar_enol_ctL_C_3sextet_SkS_b3lypD3bj_ccpVDZ_pcmH2O_opt20240124103852//Frg1/
 Attempting to make child job directory: /data/scratch/C_FeABstar_enol_ctL_C_3sextet_SkS_b3lypD3bj_ccpVDZ_pcmH2O_opt20240124103852//Frg2/
 Attempting to make child job directory: /data/scratch/C_FeABstar_enol_ctL_C_3sextet_SkS_b3lypD3bj_ccpVDZ_pcmH2O_opt20240124103852//Frg3/
 Attempting to make child job directory: /data/scratch/C_FeABstar_enol_ctL_C_3sextet_SkS_b3lypD3bj_ccpVDZ_pcmH2O_opt20240124103852//Frg4/
 Attempting to make child job directory: /data/scratch/C_FeABstar_enol_ctL_C_3sextet_SkS_b3lypD3bj_ccpVDZ_pcmH2O_opt20240124103852//Frg5/
 Creating input file /data/scratch/C_FeABstar_enol_ctL_C_3sextet_SkS_b3lypD3bj_ccpVDZ_pcmH2O_opt20240124103852/Frg1.input
 using default PutDataFrgm: nothing
 calling putenv with: QCSCRATCH=/data/scratch/C_FeABstar_enol_ctL_C_3sextet_SkS_b3lypD3bj_ccpVDZ_pcmH2O_opt20240124103852/ 
 Spawning Job For Fragment 0
 Done Job For Fragment 0
 calling putenv with: QCSCRATCH=/data/scratch 
 calling putenv with: QCTHREADS=20 
 Creating input file /data/scratch/C_FeABstar_enol_ctL_C_3sextet_SkS_b3lypD3bj_ccpVDZ_pcmH2O_opt20240124103852/Frg2.input
 using default PutDataFrgm: nothing
 calling putenv with: QCSCRATCH=/data/scratch/C_FeABstar_enol_ctL_C_3sextet_SkS_b3lypD3bj_ccpVDZ_pcmH2O_opt20240124103852/ 
 Spawning Job For Fragment 1
 Done Job For Fragment 1
 calling putenv with: QCSCRATCH=/data/scratch 
 calling putenv with: QCTHREADS=20 
 Creating input file /data/scratch/C_FeABstar_enol_ctL_C_3sextet_SkS_b3lypD3bj_ccpVDZ_pcmH2O_opt20240124103852/Frg3.input
 using default PutDataFrgm: nothing
 calling putenv with: QCSCRATCH=/data/scratch/C_FeABstar_enol_ctL_C_3sextet_SkS_b3lypD3bj_ccpVDZ_pcmH2O_opt20240124103852/ 
 Spawning Job For Fragment 2
 Done Job For Fragment 2
 calling putenv with: QCSCRATCH=/data/scratch 
 calling putenv with: QCTHREADS=20 
 Creating input file /data/scratch/C_FeABstar_enol_ctL_C_3sextet_SkS_b3lypD3bj_ccpVDZ_pcmH2O_opt20240124103852/Frg4.input
 using default PutDataFrgm: nothing
 calling putenv with: QCSCRATCH=/data/scratch/C_FeABstar_enol_ctL_C_3sextet_SkS_b3lypD3bj_ccpVDZ_pcmH2O_opt20240124103852/ 
 Spawning Job For Fragment 3
 Done Job For Fragment 3
 calling putenv with: QCSCRATCH=/data/scratch 
 calling putenv with: QCTHREADS=20 
 Creating input file /data/scratch/C_FeABstar_enol_ctL_C_3sextet_SkS_b3lypD3bj_ccpVDZ_pcmH2O_opt20240124103852/Frg5.input
 using default PutDataFrgm: nothing
 calling putenv with: QCSCRATCH=/data/scratch/C_FeABstar_enol_ctL_C_3sextet_SkS_b3lypD3bj_ccpVDZ_pcmH2O_opt20240124103852/ 
 Spawning Job For Fragment 4
 Done Job For Fragment 4
 calling putenv with: QCSCRATCH=/data/scratch 
 calling putenv with: QCTHREADS=20 
 Time for running child jobs:  CPU 0.02 s  wall 53.95 s
 ============= Method Specific SAD Guess Constructed =============
 Guess from on-the-fly superposition of atomic densities
 Warning: Energy on first SCF cycle will be non-variational

 -----------------------------------------------------------------------
  General SCF calculation program by
  Eric Jon Sundstrom, Paul Horn, Yuezhi Mao, Dmitri Zuev, Alec White,
  David Stuck, Shaama M.S., Shane Yost, Joonho Lee, David Small,
  Daniel Levine, Susi Lehtola, Hugh Burton, Evgeny Epifanovsky,
  Bang C. Huynh
 -----------------------------------------------------------------------
 Exchange:     0.2000 Hartree-Fock + 0.0800 Slater + 0.7200 B88
 Correlation:  0.1900 VWN1RPA + 0.8100 LYP
 Using SG-1 standard quadrature grid
 Dispersion:   Grimme D3
 using 20 threads for integral computing
 -------------------------------------------------------
 OpenMP Integral computing Module                
 Release: version 1.0, May 2013, Q-Chem Inc. Pittsburgh 
 -------------------------------------------------------
 C-PCM solvent model [f = (eps-1)/eps], solve by matrix inversion
 A unrestricted SCF calculation will be
 performed using DIIS
 SCF converges when DIIS error is below 1.0e-08
 ---------------------------------------
  Cycle       Energy         DIIS error
 ---------------------------------------
    1   -3142.3483223184      1.66e-02  
    2   -3127.4242568979      2.21e-03  
    3   -3126.2951845695      3.43e-03  
    4   -3128.4177292766      7.15e-04  
    5   -3128.5052771000      3.76e-04  
    6   -3128.5154868181      3.24e-04  
    7   -3128.5318895955      9.08e-05  
    8   -3128.5333146458      3.31e-05  
    9   -3128.5336102607      1.63e-05  
   10   -3128.5336927781      8.17e-06  
   11   -3128.5337174518      4.20e-06  
   12   -3128.5337262454      1.77e-06  
   13   -3128.5337290321      1.16e-06  
   14   -3128.5337296816      5.47e-07  
   15   -3128.5337298585      2.71e-07  
   16   -3128.5337298853      1.37e-07  
   17   -3128.5337298898      5.11e-08  
   18   -3128.5337298905      2.53e-08  
   19   -3128.5337298908      1.19e-08  
   20   -3128.5337298910      6.08e-09  Convergence criterion met
 ---------------------------------------
 SCF time:   CPU 22995.46s  wall 1564.00s 
<S^2> =          8.758998965

************** Final PCM Free Energy Summary **************
 G_electrostatic  =      -0.27696336 hartree =    -173.79712947 kcal/mol
 G_cavitation     =       0.00000000 hartree =       0.00000000 kcal/mol
 G_dispersion     =       0.00000000 hartree =       0.00000000 kcal/mol
 G_repulsion      =       0.00000000 hartree =       0.00000000 kcal/mol
 --------------------------------------------------
 Non-electrostatic Free Energy =       0.00000000 hartree =       0.00000000 kcal/mol
 Total                         =      -0.27696336 hartree =    -173.79712947 kcal/mol
 --------------------------------------------------
 SCF Energy (H0 + V/2)                       =   -3128.53372989 
 Solute Internal Energy (H0)                 =   -3128.25676653 
 Total Free Energy (H0 + V/2 + non-elec)     =   -3128.53372989 hartree
                                             = -1963184.54584954 kcal/mol
***********************************************************

 SCF   energy in the final basis set =    -3128.5337298910
 Total energy in the final basis set =    -3128.5337298910
 
 --------------------------------------------------------------
 
                    Orbital Energies (a.u.)
 --------------------------------------------------------------
 
 Alpha MOs
 -- Occupied --
******** -30.1120 -25.9650 -25.9626 -25.9617 -19.1443 -19.1408 -19.1394
-19.1324 -19.1261 -19.1096 -19.0943 -19.0610 -19.0590 -19.0451 -19.0329
-14.4127 -14.4088 -14.3343 -14.3342 -10.2953 -10.2928 -10.2757 -10.2734
-10.2729 -10.2470 -10.2432 -10.2269 -10.2221 -10.2118 -10.2073 -10.1958
-10.1946 -10.1926 -10.1846 -10.1774 -10.1714 -10.1707 -10.1671 -10.1643
-10.1532  -3.6037  -2.3834  -2.3779  -2.3746  -1.1053  -1.0990  -1.0636
 -1.0406  -1.0341  -1.0299  -1.0062  -1.0018  -0.9987  -0.9069  -0.8940
 -0.8752  -0.8711  -0.8526  -0.8486  -0.7926  -0.7843  -0.7754  -0.7538
 -0.7406  -0.7335  -0.7208  -0.7123  -0.6870  -0.6791  -0.6365  -0.6310
 -0.6008  -0.5817  -0.5763  -0.5614  -0.5595  -0.5486  -0.5422  -0.5363
 -0.5250  -0.5200  -0.5125  -0.5064  -0.5015  -0.4970  -0.4893  -0.4783
 -0.4766  -0.4751  -0.4599  -0.4570  -0.4512  -0.4491  -0.4427  -0.4424
 -0.4366  -0.4347  -0.4283  -0.4253  -0.4235  -0.4204  -0.4184  -0.4145
 -0.4129  -0.4036  -0.4021  -0.3969  -0.3933  -0.3910  -0.3899  -0.3865
 -0.3824  -0.3812  -0.3765  -0.3715  -0.3708  -0.3684  -0.3639  -0.3632
 -0.3578  -0.3564  -0.3538  -0.3504  -0.3472  -0.3461  -0.3383  -0.3342
 -0.3254  -0.3206  -0.3154  -0.3127  -0.3097  -0.3071  -0.3061  -0.3026
 -0.2926  -0.2796  -0.2509  -0.2438  -0.2400  -0.2231  -0.2209  -0.2192
 -0.2139  -0.2118  -0.2080  -0.2036  -0.2004  -0.1973  -0.1931  -0.1858
 -- Virtual --
 -0.0255   0.0036   0.0081   0.0274   0.0365   0.0496   0.0543   0.0595
  0.0639   0.0745   0.0766   0.0839   0.0884   0.0924   0.0935   0.0969
  0.1041   0.1069   0.1105   0.1179   0.1197   0.1258   0.1316   0.1346
  0.1420   0.1458   0.1470   0.1519   0.1530   0.1546   0.1589   0.1652
  0.1662   0.1685   0.1740   0.1782   0.1794   0.1834   0.1875   0.1911
  0.1952   0.1978   0.2072   0.2079   0.2161   0.2203   0.2220   0.2282
  0.2339   0.2363   0.2449   0.2457   0.2505   0.2545   0.2605   0.2709
  0.2738   0.2772   0.2805   0.2889   0.2943   0.3226   0.3253   0.3298
  0.3375   0.3440   0.3467   0.3513   0.3547   0.3642   0.3711   0.3749
  0.3793   0.3880   0.3936   0.4049   0.4065   0.4147   0.4190   0.4210
  0.4312   0.4399   0.4415   0.4459   0.4511   0.4565   0.4609   0.4635
  0.4677   0.4777   0.4790   0.4859   0.4890   0.4911   0.4951   0.5003
  0.5043   0.5121   0.5182   0.5236   0.5274   0.5336   0.5404   0.5435
  0.5452   0.5503   0.5539   0.5588   0.5652   0.5698   0.5752   0.5793
  0.5826   0.5843   0.5918   0.5955   0.5980   0.6005   0.6020   0.6073
  0.6094   0.6201   0.6210   0.6260   0.6269   0.6279   0.6328   0.6370
  0.6382   0.6414   0.6436   0.6471   0.6517   0.6597   0.6623   0.6646
  0.6666   0.6702   0.6730   0.6794   0.6808   0.6826   0.6840   0.6914
  0.6939   0.6968   0.6996   0.7018   0.7062   0.7093   0.7130   0.7137
  0.7191   0.7232   0.7243   0.7298   0.7360   0.7490   0.7511   0.7533
  0.7622   0.7675   0.7735   0.7764   0.7831   0.7865   0.7961   0.8023
  0.8080   0.8260   0.8310   0.8334   0.8363   0.8458   0.8507   0.8583
  0.8610   0.8632   0.8675   0.8745   0.8960   0.8973   0.9005   0.9126
  0.9168   0.9245   0.9330   0.9471   0.9557   0.9664   0.9748   0.9793
  0.9890   0.9944   1.0020   1.0025   1.0102   1.0189   1.0279   1.0314
  1.0354   1.0439   1.0496   1.0559   1.0613   1.0679   1.0694   1.0773
  1.0866   1.0950   1.0980   1.1050   1.1109   1.1169   1.1209   1.1312
  1.1354   1.1373   1.1395   1.1510   1.1524   1.1607   1.1637   1.1661
  1.1716   1.1740   1.1850   1.1891   1.1914   1.2000   1.2127   1.2164
  1.2228   1.2246   1.2321   1.2366   1.2450   1.2527   1.2594   1.2637
  1.2670   1.2764   1.2778   1.2805   1.2882   1.2943   1.2985   1.3070
  1.3124   1.3224   1.3249   1.3357   1.3390   1.3519   1.3575   1.3628
  1.3658   1.3772   1.3827   1.3938   1.3960   1.4003   1.4044   1.4156
  1.4209   1.4325   1.4364   1.4384   1.4476   1.4508   1.4572   1.4682
  1.4734   1.4815   1.4866   1.4933   1.4994   1.5046   1.5079   1.5109
  1.5197   1.5250   1.5338   1.5459   1.5501   1.5533   1.5557   1.5638
  1.5665   1.5741   1.5761   1.5784   1.5851   1.5926   1.5932   1.5989
  1.6032   1.6084   1.6129   1.6157   1.6167   1.6276   1.6323   1.6334
  1.6373   1.6433   1.6449   1.6490   1.6528   1.6605   1.6653   1.6679
  1.6737   1.6748   1.6822   1.6849   1.6882   1.6989   1.7016   1.7027
  1.7048   1.7126   1.7184   1.7221   1.7250   1.7279   1.7339   1.7404
  1.7456   1.7533   1.7550   1.7563   1.7667   1.7689   1.7715   1.7741
  1.7782   1.7843   1.7904   1.7944   1.7976   1.8037   1.8076   1.8101
  1.8121   1.8176   1.8218   1.8306   1.8342   1.8397   1.8432   1.8491
  1.8535   1.8653   1.8673   1.8728   1.8779   1.8856   1.8887   1.8918
  1.9013   1.9079   1.9125   1.9226   1.9272   1.9365   1.9381   1.9443
  1.9502   1.9558   1.9591   1.9652   1.9733   1.9784   1.9805   1.9992
  2.0076   2.0100   2.0183   2.0228   2.0314   2.0349   2.0481   2.0519
  2.0593   2.0619   2.0712   2.0861   2.0918   2.0977   2.1030   2.1106
  2.1152   2.1227   2.1260   2.1320   2.1417   2.1436   2.1516   2.1574
  2.1722   2.1748   2.1839   2.1871   2.2012   2.2030   2.2044   2.2067
  2.2154   2.2231   2.2305   2.2429   2.2480   2.2525   2.2564   2.2632
  2.2755   2.2836   2.2910   2.2965   2.3037   2.3092   2.3139   2.3208
  2.3328   2.3371   2.3388   2.3521   2.3525   2.3576   2.3656   2.3707
  2.3768   2.3891   2.3962   2.4011   2.4142   2.4217   2.4274   2.4365
  2.4391   2.4443   2.4506   2.4606   2.4656   2.4771   2.4840   2.4892
  2.4964   2.4987   2.5085   2.5093   2.5338   2.5362   2.5386   2.5433
  2.5550   2.5639   2.5748   2.5879   2.6086   2.6097   2.6130   2.6352
  2.6453   2.6529   2.6630   2.6721   2.6813   2.6895   2.6942   2.7000
  2.7138   2.7198   2.7215   2.7239   2.7319   2.7356   2.7390   2.7419
  2.7516   2.7574   2.7772   2.7806   2.7899   2.7950   2.7955   2.8114
  2.8215   2.8346   2.8500   2.8684   2.8805   2.8857   2.8992   2.9395
  2.9478   2.9631   2.9894   2.9929   3.0171   3.0422   3.0462   3.0467
  3.0722   3.0906   3.0942   3.1031   3.1074   3.1184   3.1295   3.1391
  3.1512   3.1775   3.1861   3.1890   3.1907   3.2399   3.3161   3.3598
  3.3751   3.3964   3.4031   3.4188   3.4556   3.4756   3.4877   3.5071
  3.5184   3.5260   3.5459   3.5682   3.5804   3.5917   3.6016   3.6787
  3.7065   3.7164   3.7664   3.7951
 
 Beta MOs
 -- Occupied --
******** -30.0189 -25.8866 -25.8853 -25.8848 -19.1410 -19.1373 -19.1358
-19.1271 -19.1209 -19.1056 -19.0943 -19.0609 -19.0590 -19.0451 -19.0329
-14.4121 -14.4080 -14.3343 -14.3338 -10.2954 -10.2930 -10.2758 -10.2733
-10.2729 -10.2470 -10.2432 -10.2269 -10.2221 -10.2118 -10.2073 -10.1957
-10.1945 -10.1925 -10.1845 -10.1774 -10.1714 -10.1707 -10.1671 -10.1643
-10.1528  -3.3876  -2.1538  -2.1510  -2.1496  -1.0991  -1.0929  -1.0576
 -1.0326  -1.0298  -1.0262  -1.0019  -1.0018  -0.9957  -0.9069  -0.8919
 -0.8752  -0.8711  -0.8478  -0.8435  -0.7917  -0.7837  -0.7744  -0.7529
 -0.7396  -0.7321  -0.7193  -0.7112  -0.6863  -0.6785  -0.6354  -0.6304
 -0.5979  -0.5799  -0.5734  -0.5542  -0.5460  -0.5428  -0.5384  -0.5294
 -0.5188  -0.5132  -0.5060  -0.4991  -0.4945  -0.4904  -0.4838  -0.4746
 -0.4739  -0.4697  -0.4580  -0.4516  -0.4491  -0.4419  -0.4393  -0.4366
 -0.4348  -0.4270  -0.4241  -0.4219  -0.4185  -0.4151  -0.4123  -0.4021
 -0.3981  -0.3942  -0.3907  -0.3899  -0.3877  -0.3856  -0.3798  -0.3788
 -0.3731  -0.3704  -0.3675  -0.3627  -0.3587  -0.3557  -0.3532  -0.3497
 -0.3470  -0.3406  -0.3389  -0.3323  -0.3251  -0.3211  -0.3132  -0.3120
 -0.3090  -0.3070  -0.3049  -0.3023  -0.2977  -0.2875  -0.2669  -0.2522
 -0.2435  -0.2387  -0.2231  -0.2204  -0.2138  -0.2101  -0.2069  -0.1995
 -0.1983  -0.1931  -0.1861
 -- Virtual --
 -0.0757  -0.0697  -0.0600  -0.0185   0.0082   0.0108   0.0134   0.0205
  0.0277   0.0377   0.0502   0.0549   0.0600   0.0641   0.0756   0.0774
  0.0854   0.0894   0.0933   0.0949   0.0980   0.1049   0.1078   0.1111
  0.1184   0.1204   0.1262   0.1320   0.1354   0.1430   0.1469   0.1476
  0.1526   0.1539   0.1557   0.1592   0.1658   0.1672   0.1696   0.1746
  0.1788   0.1797   0.1839   0.1879   0.1920   0.1966   0.1984   0.2076
  0.2086   0.2168   0.2208   0.2223   0.2298   0.2352   0.2374   0.2460
  0.2477   0.2516   0.2556   0.2614   0.2718   0.2750   0.2790   0.2812
  0.2902   0.2963   0.3249   0.3301   0.3342   0.3418   0.3496   0.3518
  0.3565   0.3597   0.3672   0.3723   0.3795   0.3826   0.3905   0.3955
  0.4082   0.4108   0.4201   0.4217   0.4219   0.4355   0.4416   0.4449
  0.4478   0.4531   0.4574   0.4623   0.4647   0.4694   0.4791   0.4805
  0.4877   0.4908   0.4927   0.4978   0.5017   0.5062   0.5138   0.5192
  0.5254   0.5289   0.5346   0.5412   0.5454   0.5458   0.5516   0.5553
  0.5598   0.5659   0.5706   0.5761   0.5798   0.5832   0.5860   0.5926
  0.5978   0.5987   0.6012   0.6034   0.6089   0.6101   0.6209   0.6214
  0.6266   0.6277   0.6286   0.6337   0.6379   0.6391   0.6422   0.6444
  0.6477   0.6522   0.6601   0.6637   0.6650   0.6672   0.6707   0.6739
  0.6799   0.6821   0.6838   0.6854   0.6924   0.6945   0.6985   0.7016
  0.7031   0.7071   0.7102   0.7139   0.7145   0.7195   0.7239   0.7250
  0.7322   0.7378   0.7502   0.7526   0.7552   0.7663   0.7711   0.7749
  0.7790   0.7843   0.7888   0.7990   0.8037   0.8172   0.8285   0.8354
  0.8403   0.8422   0.8501   0.8516   0.8610   0.8653   0.8658   0.8756
  0.8839   0.8996   0.9013   0.9040   0.9140   0.9224   0.9270   0.9394
  0.9488   0.9583   0.9708   0.9774   0.9825   0.9932   0.9958   1.0040
  1.0061   1.0135   1.0202   1.0307   1.0327   1.0382   1.0452   1.0508
  1.0585   1.0644   1.0692   1.0711   1.0783   1.0891   1.0985   1.1000
  1.1091   1.1127   1.1179   1.1244   1.1328   1.1370   1.1403   1.1421
  1.1534   1.1542   1.1619   1.1673   1.1675   1.1749   1.1758   1.1875
  1.1903   1.1926   1.2031   1.2161   1.2191   1.2256   1.2296   1.2338
  1.2392   1.2479   1.2556   1.2609   1.2662   1.2683   1.2781   1.2793
  1.2830   1.2898   1.2967   1.3025   1.3095   1.3163   1.3265   1.3308
  1.3389   1.3478   1.3541   1.3624   1.3652   1.3685   1.3856   1.3899
  1.3968   1.4005   1.4061   1.4105   1.4199   1.4227   1.4337   1.4397
  1.4437   1.4501   1.4552   1.4630   1.4727   1.4767   1.4875   1.4931
  1.4976   1.5016   1.5081   1.5126   1.5186   1.5233   1.5336   1.5358
  1.5518   1.5554   1.5573   1.5619   1.5690   1.5732   1.5783   1.5819
  1.5895   1.5918   1.5974   1.6030   1.6048   1.6067   1.6133   1.6172
  1.6181   1.6237   1.6294   1.6345   1.6397   1.6407   1.6489   1.6516
  1.6531   1.6565   1.6636   1.6690   1.6702   1.6748   1.6799   1.6846
  1.6879   1.6903   1.7012   1.7038   1.7071   1.7081   1.7192   1.7208
  1.7256   1.7270   1.7342   1.7352   1.7454   1.7486   1.7553   1.7571
  1.7591   1.7680   1.7717   1.7747   1.7759   1.7817   1.7876   1.7945
  1.7962   1.7998   1.8059   1.8102   1.8125   1.8170   1.8192   1.8247
  1.8322   1.8387   1.8412   1.8461   1.8517   1.8568   1.8665   1.8689
  1.8769   1.8811   1.8874   1.8897   1.8960   1.9036   1.9122   1.9139
  1.9243   1.9327   1.9385   1.9408   1.9463   1.9512   1.9595   1.9624
  1.9679   1.9761   1.9798   1.9823   2.0015   2.0088   2.0111   2.0215
  2.0256   2.0331   2.0382   2.0499   2.0551   2.0620   2.0645   2.0741
  2.0883   2.0944   2.1002   2.1086   2.1116   2.1189   2.1240   2.1278
  2.1363   2.1444   2.1506   2.1533   2.1598   2.1738   2.1799   2.1872
  2.1907   2.2020   2.2043   2.2061   2.2075   2.2171   2.2285   2.2319
  2.2462   2.2493   2.2561   2.2587   2.2643   2.2773   2.2867   2.2942
  2.2982   2.3063   2.3107   2.3159   2.3216   2.3338   2.3399   2.3427
  2.3532   2.3558   2.3597   2.3682   2.3737   2.3800   2.3920   2.3979
  2.4034   2.4179   2.4242   2.4301   2.4390   2.4410   2.4484   2.4522
  2.4619   2.4690   2.4788   2.4874   2.4900   2.4979   2.5004   2.5101
  2.5124   2.5359   2.5385   2.5443   2.5458   2.5576   2.5673   2.5785
  2.5933   2.6103   2.6123   2.6196   2.6400   2.6576   2.6589   2.6703
  2.6782   2.6842   2.6902   2.6972   2.7079   2.7201   2.7230   2.7239
  2.7311   2.7364   2.7411   2.7448   2.7507   2.7585   2.7668   2.7803
  2.7829   2.7912   2.8003   2.8044   2.8170   2.8260   2.8449   2.8545
  2.8807   2.8844   2.8924   2.9194   2.9551   2.9642   2.9784   2.9994
  3.0346   3.0461   3.0467   3.0641   3.0793   3.0883   3.0992   3.1057
  3.1162   3.1230   3.1335   3.1488   3.1649   3.1888   3.1892   3.2008
  3.2103   3.2617   3.2933   3.3609   3.3789   3.3859   3.3971   3.4318
  3.4401   3.4756   3.4774   3.4880   3.5090   3.5255   3.5287   3.5546
  3.5686   3.5805   3.6003   3.6079   3.7130   3.7226   3.7743   3.8606
  3.8882
 --------------------------------------------------------------
 
          Ground-State Mulliken Net Atomic Charges

     Atom                 Charge (a.u.)    Spin (a.u.)
  --------------------------------------------------------
      1 C                     0.142794      -0.001575
      2 C                     0.051738      -0.000575
      3 H                    -0.000917       0.000881
      4 N                    -0.177357       0.013548
      5 H                     0.090418       0.001157
      6 C                     0.063546       0.000063
      7 O                    -0.560634       0.000091
      8 C                     0.268263       0.007189
      9 O                    -0.428933       0.112695
     10 N                    -0.066159       0.030142
     11 C                     0.122208      -0.000673
     12 H                     0.047781       0.001656
     13 H                     0.047285       0.000682
     14 C                    -0.065018       0.030908
     15 H                    -0.035110      -0.001098
     16 C                     0.121278      -0.002227
     17 C                     0.064896       0.007660
     18 H                     0.059817       0.000586
     19 H                     0.079847      -0.000323
     20 C                     0.093924      -0.000041
     21 O                    -0.340010       0.000349
     22 N                    -0.116996       0.000236
     23 H                     0.089267       0.000152
     24 C                     0.090815      -0.000015
     25 O                    -0.393340       0.000017
     26 N                    -0.060097       0.026681
     27 C                     0.157766      -0.001108
     28 C                    -0.002074       0.004045
     29 H                     0.058865      -0.000466
     30 H                     0.053868      -0.000419
     31 H                     0.054151       0.001788
     32 C                     0.124282      -0.000559
     33 H                     0.037085       0.000440
     34 H                     0.043111       0.001298
     35 C                    -0.037044       0.001453
     36 H                     0.010574       0.000561
     37 H                     0.025113       0.000084
     38 C                    -0.053956      -0.000028
     39 H                     0.068780       0.000818
     40 H                    -0.002595       0.000004
     41 C                     0.032086       0.000111
     42 H                    -0.004557       0.000008
     43 H                    -0.014850       0.000003
     44 C                     0.048568       0.000011
     45 H                     0.009218       0.000026
     46 C                    -0.041256       0.001864
     47 H                     0.017700       0.000172
     48 H                     0.009719       0.000116
     49 C                     0.020342       0.004439
     50 H                     0.057345       0.002261
     51 H                     0.066208      -0.000455
     52 C                    -0.014087      -0.000242
     53 H                     0.014958      -0.000005
     54 H                     0.000222       0.000074
     55 C                     0.032907       0.000784
     56 H                     0.025656       0.001006
     57 H                    -0.023815       0.000288
     58 O                    -0.382436       0.000284
     59 O                    -0.526817       0.000059
     60 O                    -0.326205       0.080768
     61 Fe                    0.690472       4.162118
     62 O                    -0.312172       0.097201
     63 O                    -0.423218       0.157886
     64 O                    -0.425187       0.160386
     65 O                    -0.331489       0.095372
     66 H                     0.073458      -0.000610
  --------------------------------------------------------
  Sum of atomic charges =    -2.000000
  Sum of spin   charges =     5.000000

 -----------------------------------------------------------------
                    Cartesian Multipole Moments
 -----------------------------------------------------------------
    Charge (ESU x 10^10)
                -9.6064
    Dipole Moment (Debye)
         X       0.1948      Y      12.8496      Z     -14.7531
       Tot      19.5653
    Quadrupole Moments (Debye-Ang)
        XX    -496.2926     XY     -15.1868     YY    -251.4361
        XZ      50.6584     YZ       7.9992     ZZ    -268.5141
    Octopole Moments (Debye-Ang^2)
       XXX     118.6381    XXY     545.1542    XYY      49.1047
       YYY     123.2293    XXZ    -538.6850    XYZ     -88.6278
       YYZ      46.7346    XZZ      32.0273    YZZ     103.7521
       ZZZ      29.1121
    Hexadecapole Moments (Debye-Ang^3)
      XXXX  -28423.1570   XXXY    -705.8003   XXYY   -4401.3326
      XYYY     297.8199   YYYY   -4924.5570   XXXZ    2163.5009
      XXYZ     662.8922   XYYZ     573.2910   YYYZ     204.7940
      XXZZ   -4694.7683   XYZZ      47.4844   YYZZ   -1401.7313
      XZZZ    1054.6230   YZZZ     277.1204   ZZZZ   -3045.7471
 -----------------------------------------------------------------
 Calculating analytic gradient of the SCF energy
 Gradient of SCF Energy
            1           2           3           4           5           6
    1   0.0721876   0.0115946  -0.0225842  -0.0182716   0.0121406  -0.0489700
    2  -0.0515091   0.0095450  -0.0061707  -0.0434596   0.0405841  -0.1136532
    3  -0.0077866   0.0363714  -0.0426498  -0.0216855   0.0137050  -0.0415763
            7           8           9          10          11          12
    1   0.0412725   0.0613570   0.0339089  -0.0068700   0.0086821   0.0015451
    2  -0.0253511  -0.0561252  -0.0011273  -0.0080771   0.0179723  -0.0168471
    3  -0.0457034  -0.0463785  -0.0358752  -0.0051220   0.0005456   0.0172834
           13          14          15          16          17          18
    1  -0.0026427  -0.0734492   0.0138074   0.0626026   0.0011372   0.0140453
    2  -0.0135693   0.0333283   0.0462098   0.0693899  -0.0041346   0.0158662
    3  -0.0262154   0.0580032   0.0071300  -0.0129110  -0.0023380   0.0231066
           19          20          21          22          23          24
    1   0.0066166   0.0305555  -0.0515865  -0.0347257   0.0216327   0.1175821
    2   0.0176750  -0.0501962   0.0647265   0.0134045  -0.0226660   0.0259396
    3  -0.0282575  -0.0691435   0.1153664   0.0131922  -0.0390286   0.0239454
           25          26          27          28          29          30
    1  -0.1760436   0.0080963  -0.0629337  -0.0055505   0.0177531  -0.0114402
    2  -0.0390712  -0.0045229  -0.0245852  -0.0116315  -0.0188293   0.0345610
    3  -0.0020413   0.0073875   0.0361656   0.0014268  -0.0255473  -0.0172549
           31          32          33          34          35          36
    1  -0.0251117  -0.0016168   0.0068632  -0.0088734   0.0100517  -0.0245889
    2  -0.0148649   0.0136999  -0.0067023  -0.0223703  -0.0008210  -0.0109449
    3   0.0129928  -0.0008042   0.0282476  -0.0141343   0.0143972   0.0118060
           37          38          39          40          41          42
    1  -0.0074741  -0.0211379   0.0393156   0.0005574   0.0154382   0.0064201
    2   0.0091812  -0.0054633   0.0098092  -0.0072389   0.0003361   0.0196111
    3  -0.0396161  -0.0104407  -0.0109011   0.0321691  -0.0172102   0.0273095
           43          44          45          46          47          48
    1  -0.0349244   0.0316275  -0.0224944  -0.0155589   0.0172917   0.0057897
    2  -0.0076856  -0.0304311   0.0366972  -0.0019315  -0.0146898   0.0005204
    3   0.0058036  -0.0042427   0.0057542   0.0019246  -0.0133792   0.0239083
           49          50          51          52          53          54
    1   0.0112335   0.0180447  -0.0181652  -0.0039737  -0.0234635   0.0303881
    2  -0.0099963  -0.0137254   0.0011999  -0.0119175   0.0167925   0.0139277
    3   0.0090073  -0.0002981   0.0197434  -0.0099802   0.0182101   0.0028988
           55          56          57          58          59          60
    1   0.0007566  -0.0358303   0.0233211   0.0294104   0.0321712  -0.0706249
    2   0.0114528  -0.0206347  -0.0184350   0.1578545   0.0065033  -0.0598598
    3   0.0095942  -0.0036012  -0.0195099   0.0849319  -0.0417520   0.0066517
           61          62          63          64          65          66
    1  -0.0009221  -0.0845521   0.0335186  -0.0241968   0.0782626   0.0115982
    2  -0.0073321   0.0809395  -0.0274299  -0.0166221   0.0282713   0.0246242
    3  -0.0049358   0.0349094   0.0044202   0.0198842  -0.0657793  -0.0020936
 Max gradient component =       1.760E-01
 RMS gradient           =       3.648E-02
 Computing fast CPCM-SWIG gradient
 Updating gradient with PCM contributions...
 -- total gradient after adding PCM contribution --
---------------------------------------------------
  Atom         X              Y              Z     
---------------------------------------------------
   1       0.066140      -0.048306      -0.009573
   2      -0.007909      -0.010187      -0.003132
   3       0.002674      -0.000042       0.002124
   4      -0.037099      -0.016621       0.012775
   5       0.001136      -0.011495      -0.009147
   6       0.073252      -0.029877      -0.067897
   7      -0.059460       0.000088       0.036697
   8       0.060912      -0.062818      -0.047946
   9       0.046652       0.061746      -0.029107
  10       0.020866       0.005962       0.029549
  11       0.016827      -0.000922      -0.007466
  12      -0.004323       0.002498      -0.003986
  13      -0.006878       0.005463       0.007495
  14      -0.074661       0.048942       0.047212
  15      -0.002668       0.005442      -0.000923
  16       0.072217       0.042351      -0.020172
  17       0.005542      -0.000331      -0.009280
  18      -0.006243      -0.004329      -0.007022
  19       0.003210      -0.002988       0.005750
  20      -0.017944      -0.007672      -0.004757
  21      -0.012763       0.013593       0.025587
  22       0.022746       0.004013      -0.009772
  23      -0.016264      -0.002392       0.006217
  24       0.050558      -0.021731      -0.086565
  25      -0.045133      -0.002819       0.022526
  26      -0.020448      -0.011520      -0.034738
  27      -0.059878      -0.027361       0.029406
  28      -0.007749      -0.006676       0.006812
  29       0.004490       0.005473       0.005367
  30       0.003477      -0.000095       0.004711
  31       0.007992       0.005138       0.000049
  32      -0.017184      -0.000517       0.007709
  33       0.008418       0.001708      -0.009691
  34       0.005051       0.006473       0.000406
  35       0.003125      -0.000275       0.004032
  36       0.006152      -0.002039      -0.004946
  37      -0.000178      -0.000072       0.001677
  38      -0.006274       0.001208      -0.000057
  39      -0.001190      -0.001757      -0.000189
  40       0.000511       0.002732      -0.003369
  41       0.003074       0.001837       0.011482
  42      -0.002501      -0.000284      -0.005704
  43       0.003574       0.000831      -0.008402
  44       0.007021      -0.000824       0.010437
  45       0.002001      -0.005042       0.001802
  46       0.002767       0.004076       0.008328
  47      -0.008387      -0.001848      -0.001015
  48      -0.003344      -0.007476      -0.001205
  49       0.006841      -0.013783       0.004530
  50      -0.000603       0.006546      -0.003247
  51      -0.001479       0.004955      -0.006563
  52      -0.001947      -0.003851      -0.001442
  53       0.002843       0.000848      -0.004162
  54      -0.004802      -0.005183       0.002023
  55      -0.003930      -0.006783      -0.000325
  56       0.001629       0.003024       0.000072
  57      -0.002372       0.009051       0.001763
  58      -0.015455       0.038789       0.035795
  59      -0.007569       0.021634       0.058930
  60      -0.037354       0.010258       0.006513
  61      -0.001036      -0.013924      -0.010663
  62      -0.045429       0.043352       0.042886
  63       0.026230      -0.017131       0.008933
  64      -0.017032      -0.006418       0.006554
  65       0.022250       0.003030      -0.043120
  66      -0.002691      -0.005671      -0.000567
---------------------------------------------------
 Number of fixed atoms: 0
 Gradient time:  CPU 16718.85 s  wall 885.81 s

 *****************************************************
             Starting BFGS Algorithm
 *****************************************************
            LIBOPT3 RUN PARAMETERS

  Geometry Optimization Coordinates :
	Delocalized Natural Internal Coordinates

  Step Length Selection Method :
	Eigenvector Following Algorithm

  Convergence Criteria :
	Max Gradient Component    	3.00000000e-04
	Max Displacement Component	1.20000000e-03
	Absolute Energy Difference	1.00000000e-06

  Initial Hessian :
	Approximate Hessian - Simple Internal Coordinate Scaled

  Type of Verification :
	Verify with final updated Hessian
 *****************************************************

	OPTIMIZATION CYCLE:	1

 Scaling Magnitude of Eigenvalues
 	Minimum: -25.00000000	 Maximum: 25.00000000
 192 Hessian Eigenvalues to form next step
   0.10000000   0.10000000   0.10000000   0.10000000   0.10000000
   0.10000000   0.10000000   0.10000000   0.10000017   0.10000028
   0.10000029   0.10000040   0.10000134   0.10000244   0.10000271
   0.10001227   0.10001242   0.10001248   0.10001957   0.10007960
   0.10009931   0.10013666   0.10022615   0.10024855   0.10033430
   0.10067636   0.10194930   0.10314208   0.10339128   0.10549272
   0.10785039   0.10939092   0.11186759   0.11302780   0.11328152
   0.11666090   0.11716887   0.11886816   0.11965089   0.12044257
   0.12102272   0.12318171   0.12401920   0.12451107   0.12514541
   0.12669641   0.12697839   0.12706369   0.12738042   0.12833014
   0.13252632   0.13284371   0.13376568   0.13497834   0.13651162
   0.13691738   0.13872942   0.14029069   0.14032339   0.14058536
   0.14116625   0.14207634   0.14486317   0.14848897   0.15013163
   0.15046315   0.15211832   0.15271013   0.15404584   0.15455496
   0.15553839   0.15592314   0.15706799   0.16023217   0.16054493
   0.16290453   0.17057520   0.17266655   0.17478017   0.17594241
   0.17691911   0.17832377   0.17910405   0.18055178   0.18253964
   0.18397343   0.18489755   0.18668686   0.18998871   0.19145055
   0.19171548   0.19668702   0.19774744   0.19858683   0.19901534
   0.19938808   0.19955329   0.19993298   0.19994121   0.19996597
   0.19998356   0.19999080   0.19999493   0.19999811   0.19999877
   0.20000000   0.20000000   0.20000000   0.20000000   0.20000000
   0.20000000   0.20000000   0.20000000   0.20037756   0.20214862
   0.20686738   0.20725317   0.21723998   0.22795990   0.27623706
   0.29688785   0.31931686   0.41485798   0.42687281   0.43147142
   0.43697107   0.45649342   0.45979548   0.46509392   0.47101978
   0.47558477   0.47678159   0.48383421   0.48683127   0.49659279
   0.49751696   0.49787274   0.49911511   0.49974630   0.49985595
   0.49997339   0.50000000   0.50000000   0.50000000   0.50000000
   0.50000000   0.50000000   0.50000000   0.50000000   0.50000000
   0.50000000   0.50000000   0.50000000   0.50000000   0.50000000
   0.50000000   0.50000000   0.50000000   0.50000000   0.50000000
   0.50000000   0.50000000   0.50000000   0.50000000   0.50000000
   0.50000000   0.50000000   0.50000000   0.50000000   0.50000000
   0.50000000   0.50000000   0.50000000   0.50000000   0.50000000
   0.50000000   0.50000000   0.50000000   0.50000000   0.50000000
   0.50000000   0.50000000   0.50000000   0.50000000   0.50000000
   0.50000000   0.50700034   0.51092617   0.51341039   0.51684168
   0.52317846   0.53096696

 Minimum Search taking a RFO step
 Searching for Lambda that minimizes along all modes
	Value of Lambda   -0.12730784
	Norm  of Stepsize  0.52224392
	RMS   of Stepsize  0.03768971

	Performing Iterative Coordinate Back-Transformation

	  Starting from Previous Position

	  iter:	0	rms: 1.0415627355e-01	maxdev: 3.7985365430e-01
	  iter:	1	rms: 3.9206264289e-03	maxdev: 2.2532744054e-02
	  iter:	2	rms: 1.1871051977e-05	maxdev: 1.2521556341e-04
	  iter:	3	rms: 3.8758826853e-10	maxdev: 4.4091074799e-09	 Success!

	Finished Iterative Coordinate Back-Transformation
 Adding empirical dispersion correction 
 ----------------------------------------------------------------
 Doing -D3(BJ) with
 s6  =   1.00000e+00
 s8  =   1.98890e+00
 a1  =   3.98100e-01
 a2  =   4.42110e+00
 -D3 energy without 3body term =     -1.5757551094e-01 hartrees
 ----------------------------------------------------------------
             Standard Nuclear Orientation (Angstroms)
    I     Atom           X                Y                Z
 ----------------------------------------------------------------
    1      C      -2.2409004052     1.2210017325    -2.0916688661
    2      C      -3.9854775094    -0.9062701975     1.6979357382
    3      H      -3.4781174735    -0.7806865968     2.6756144731
    4      N      -3.1163731992    -1.6842586217     0.8239113088
    5      H      -3.4464920007    -2.6038994608     0.5328129209
    6      C      -5.2676027545    -1.6947076174     1.9452458977
    7      O      -6.0946433648    -1.1508601882     2.7746894336
    8      C      -1.8537225804    -1.3104490828     0.3930793988
    9      O      -1.4818702570    -0.0791094231     0.6371429100
   10      N      -2.4610769971     2.1325190628    -1.1234215744
   11      C      -3.7288615903     2.8386168573    -0.9002612423
   12      H      -3.8845023899     3.6210318922    -1.6666687135
   13      H      -3.6469222264     3.3539310106     0.0714734637
   14      C      -1.0222004239    -2.2386681432    -0.2345539693
   15      H      -1.3729292944    -3.2607097914    -0.3752447617
   16      C       0.3509672512    -1.9634171410    -0.5674688192
   17      C       1.2120608769    -3.1992417977    -0.7859390964
   18      H       0.7831872715    -3.7919468692    -1.6133040898
   19      H       1.1305303050    -3.7996790498     0.1414593650
   20      C       2.6765487865    -2.9851304084    -1.0656335857
   21      O       3.1969871462    -3.4794867640    -2.0876248594
   22      N       3.3849467459    -2.2666461879    -0.1586606470
   23      H       2.9042649240    -1.9206629637     0.6724635055
   24      C       5.2732625971    -1.1903930856     0.9301701610
   25      O       6.4810806382    -0.8460934346     0.9669835022
   26      N       2.2482454397     2.0861558740    -0.5009724732
   27      C       2.0346859712     1.8347227658     0.8059600788
   28      C       3.0778829214     2.1553715836     1.8519274263
   29      H       2.6269169881     2.7702055945     2.6513392994
   30      H       3.4721218662     1.2209530162     2.2884247414
   31      H       3.9365852675     2.7246547238     1.4574763046
   32      C       3.5381396293     2.5096334736    -1.0484788517
   33      H       3.4054846753     2.7683835588    -2.1138218305
   34      H       3.8900078102     3.4295347693    -0.5453184782
   35      C       4.5823915116     1.3770893626    -0.9562721840
   36      H       5.5471530670     1.7263682045    -1.3770756137
   37      H       4.7555882490     1.1284374296     0.1009335998
   38      C       4.1343879511     0.1462520131    -1.7591323984
   39      H       3.1063630958    -0.1425513574    -1.4933646467
   40      H       4.1132642741     0.4474493307    -2.8250076269
   41      C       5.0353759669    -1.0910819981    -1.6102687924
   42      H       4.7977076836    -1.7612672228    -2.4532476652
   43      H       6.1023523109    -0.8308190405    -1.7327934151
   44      C       4.7898788778    -1.9148071473    -0.3165839822
   45      H       5.3801227219    -2.8498705272    -0.3951977339
   46      C      -5.0030108439     1.9251083227    -0.8751821959
   47      H      -5.8246118385     2.4710464176    -0.3723239705
   48      H      -5.3748821417     1.7634102642    -1.9023827156
   49      C      -3.1422787568     1.0709239554    -3.2861048232
   50      H      -3.8805192572     1.8806487585    -3.3780440523
   51      H      -2.5103981342     1.1461503017    -4.1896961807
   52      C      -4.8346424003     0.5223934834    -0.2692986608
   53      H      -4.1398374476    -0.0437312026    -0.9109804818
   54      H      -5.8059071394    -0.0107219691    -0.3151816042
   55      C      -4.3136606679     0.5106262168     1.1666173328
   56      H      -3.3970863154     1.1170004893     1.2138983535
   57      H      -5.0511123657     0.9920092523     1.8355552730
   58      O      -5.4192033732    -2.7935903784     1.3428110827
   59      O       4.3860105845    -1.0104044769     1.8649264507
   60      O       0.8494490677    -0.7945659092    -0.5969646142
   61      Fe     -0.1670824091     0.8695645094    -0.4081100718
   62      O      -1.2090975777     0.4636396008    -1.9640243426
   63      O      -1.4259374774     2.3699340243    -0.2504789044
   64      O       1.2023235843     1.8850524280    -1.3561398682
   65      O       0.9155346603     1.3093950821     1.1337665298
   66      H      -3.6427003049     0.0879298919    -3.2777628483
 ----------------------------------------------------------------
 Nuclear Repulsion Energy =        5383.91439971 hartrees
 There are      152 alpha and      147 beta electrons
No default van der Waals radius is available for Z = 26
	Found R = 2.4400 A in the $van_der_waals section
 Discretize the solute cavity surface with Lebedev spheres
	Using 110 Lebedev grid points for each H atom
	Using 194 Lebedev grid points for other atoms
	Atomic van der Waals radii (Bondi set) will be scaled by 1.20
 Using smooth SwiG surface discretization
 Remove points where switching function is < 1.0e-08
 Keep 3824 surface tesserae and discard 6544 interior tesserae
 Molecular Surface Area = 484.763 Angst**2

 Applying Cartesian multipole field
    Component          Value
    ---------          -----
     (2,0,0)        1.00000E-12
     (0,2,0)        2.00000E-11
     (0,0,2)       -3.00000E-11
 Nucleus-field energy     = 2.2124089774e-08 hartrees
 Read the previous MOs as SCF guess

 -----------------------------------------------------------------------
  General SCF calculation program by
  Eric Jon Sundstrom, Paul Horn, Yuezhi Mao, Dmitri Zuev, Alec White,
  David Stuck, Shaama M.S., Shane Yost, Joonho Lee, David Small,
  Daniel Levine, Susi Lehtola, Hugh Burton, Evgeny Epifanovsky,
  Bang C. Huynh
 -----------------------------------------------------------------------
 Requested basis set is non-standard
 There are 318 shells and 692 basis functions
 Exchange:     0.2000 Hartree-Fock + 0.0800 Slater + 0.7200 B88
 Correlation:  0.1900 VWN1RPA + 0.8100 LYP
 Using SG-1 standard quadrature grid
 Dispersion:   Grimme D3
 A cutoff of  1.0D-12 yielded  39525 shell pairs
 There are    172967 function pairs (    192369 Cartesian)
 Smallest overlap matrix eigenvalue = 2.02E-04
 A unrestricted SCF calculation will be
 performed using DIIS
 SCF converges when DIIS error is below 1.0e-08
 ---------------------------------------
  Cycle       Energy         DIIS error
 ---------------------------------------
    1   -3128.3098786386      9.40e-04  
    2   -3128.5437265564      5.00e-04  
    3   -3128.5329694929      6.74e-04  
    4   -3128.6126350207      1.48e-04  
    5   -3128.6137487164      1.26e-04  
    6   -3128.6159575054      4.54e-05  
    7   -3128.6163017111      1.19e-05  
    8   -3128.6163267926      3.66e-06  
    9   -3128.6163294264      1.46e-06  
   10   -3128.6163298568      7.22e-07  
   11   -3128.6163299848      2.79e-07  
   12   -3128.6163300131      1.53e-07  
   13   -3128.6163300232      8.04e-08  
   14   -3128.6163300261      3.30e-08  
   15   -3128.6163300267      1.49e-08  
   16   -3128.6163300267      1.00e-08  Convergence criterion met
 ---------------------------------------
 SCF time:   CPU 19285.04s  wall 1285.00s 
<S^2> =          8.758495574

************** Final PCM Free Energy Summary **************
 G_electrostatic  =      -0.27345693 hartree =    -171.59681056 kcal/mol
 G_cavitation     =       0.00000000 hartree =       0.00000000 kcal/mol
 G_dispersion     =       0.00000000 hartree =       0.00000000 kcal/mol
 G_repulsion      =       0.00000000 hartree =       0.00000000 kcal/mol
 --------------------------------------------------
 Non-electrostatic Free Energy =       0.00000000 hartree =       0.00000000 kcal/mol
 Total                         =      -0.27345693 hartree =    -171.59681056 kcal/mol
 --------------------------------------------------
 SCF Energy (H0 + V/2)                       =   -3128.61633003 
 Solute Internal Energy (H0)                 =   -3128.34287310 
 Total Free Energy (H0 + V/2 + non-elec)     =   -3128.61633003 hartree
                                             = -1963236.37821705 kcal/mol
***********************************************************

 SCF   energy in the final basis set =    -3128.6163300267
 Total energy in the final basis set =    -3128.6163300267
 
 --------------------------------------------------------------
 
                    Orbital Energies (a.u.)
 --------------------------------------------------------------
 
 Alpha MOs
 -- Occupied --
******** -30.1210 -25.9742 -25.9716 -25.9711 -19.1369 -19.1366 -19.1331
-19.1314 -19.1282 -19.1115 -19.0937 -19.0611 -19.0594 -19.0593 -19.0481
-14.4167 -14.4159 -14.3324 -14.3315 -10.2947 -10.2927 -10.2779 -10.2742
-10.2658 -10.2498 -10.2462 -10.2268 -10.2223 -10.2031 -10.2020 -10.1970
-10.1917 -10.1908 -10.1851 -10.1771 -10.1722 -10.1678 -10.1665 -10.1634
-10.1575  -3.6093  -2.3878  -2.3828  -2.3804  -1.0883  -1.0824  -1.0379
 -1.0213  -1.0178  -1.0164  -1.0135  -0.9932  -0.9912  -0.9118  -0.9036
 -0.8944  -0.8930  -0.8600  -0.8556  -0.7895  -0.7857  -0.7744  -0.7531
 -0.7437  -0.7330  -0.7223  -0.7119  -0.6888  -0.6793  -0.6386  -0.6323
 -0.5965  -0.5835  -0.5730  -0.5586  -0.5504  -0.5465  -0.5399  -0.5307
 -0.5206  -0.5142  -0.5094  -0.5047  -0.4988  -0.4910  -0.4850  -0.4769
 -0.4761  -0.4726  -0.4584  -0.4563  -0.4489  -0.4460  -0.4424  -0.4411
 -0.4350  -0.4315  -0.4277  -0.4247  -0.4211  -0.4196  -0.4152  -0.4143
 -0.4122  -0.4040  -0.4002  -0.3975  -0.3933  -0.3914  -0.3891  -0.3857
 -0.3831  -0.3794  -0.3770  -0.3729  -0.3723  -0.3683  -0.3635  -0.3628
 -0.3595  -0.3574  -0.3554  -0.3490  -0.3451  -0.3422  -0.3346  -0.3305
 -0.3249  -0.3201  -0.3167  -0.3119  -0.3107  -0.3076  -0.3045  -0.3026
 -0.2918  -0.2769  -0.2515  -0.2433  -0.2406  -0.2258  -0.2235  -0.2217
 -0.2188  -0.2182  -0.2157  -0.2094  -0.2088  -0.2073  -0.2032  -0.1994
 -- Virtual --
 -0.0179  -0.0024   0.0062   0.0253   0.0363   0.0502   0.0565   0.0603
  0.0648   0.0747   0.0770   0.0841   0.0889   0.0926   0.0949   0.0993
  0.1050   0.1073   0.1108   0.1195   0.1209   0.1269   0.1334   0.1357
  0.1416   0.1454   0.1467   0.1526   0.1543   0.1554   0.1611   0.1665
  0.1685   0.1697   0.1754   0.1784   0.1804   0.1851   0.1901   0.1929
  0.1934   0.1994   0.2068   0.2101   0.2183   0.2196   0.2242   0.2283
  0.2313   0.2367   0.2467   0.2468   0.2546   0.2582   0.2619   0.2733
  0.2740   0.2794   0.2824   0.2916   0.2965   0.3146   0.3230   0.3307
  0.3314   0.3366   0.3427   0.3483   0.3579   0.3649   0.3671   0.3774
  0.3809   0.3877   0.3951   0.4015   0.4081   0.4117   0.4165   0.4218
  0.4248   0.4331   0.4428   0.4475   0.4509   0.4548   0.4586   0.4603
  0.4694   0.4747   0.4763   0.4823   0.4852   0.4869   0.4903   0.4958
  0.5040   0.5097   0.5188   0.5215   0.5271   0.5331   0.5409   0.5410
  0.5454   0.5474   0.5521   0.5556   0.5632   0.5684   0.5716   0.5753
  0.5799   0.5841   0.5883   0.5925   0.5953   0.5979   0.5997   0.6026
  0.6102   0.6137   0.6187   0.6232   0.6258   0.6278   0.6302   0.6324
  0.6358   0.6389   0.6426   0.6457   0.6496   0.6576   0.6585   0.6625
  0.6659   0.6681   0.6708   0.6777   0.6804   0.6825   0.6852   0.6869
  0.6925   0.6935   0.6974   0.6978   0.7043   0.7083   0.7135   0.7157
  0.7192   0.7207   0.7228   0.7258   0.7322   0.7448   0.7507   0.7528
  0.7557   0.7650   0.7694   0.7698   0.7822   0.7875   0.7945   0.7992
  0.8073   0.8138   0.8259   0.8292   0.8335   0.8414   0.8479   0.8507
  0.8544   0.8597   0.8680   0.8777   0.8874   0.8947   0.8982   0.9124
  0.9158   0.9238   0.9270   0.9312   0.9490   0.9632   0.9661   0.9737
  0.9844   0.9906   0.9927   1.0023   1.0096   1.0191   1.0241   1.0332
  1.0343   1.0400   1.0450   1.0523   1.0590   1.0631   1.0652   1.0757
  1.0849   1.0862   1.0932   1.0982   1.1060   1.1176   1.1187   1.1216
  1.1293   1.1382   1.1392   1.1461   1.1526   1.1585   1.1598   1.1673
[...]
    Octopole Moments (Debye-Ang^2)
       XXX     122.5180    XXY     483.0043    XYY       5.6454
       YYY     189.9639    XXZ    -451.0441    XYZ     -92.9256
       YYZ      50.5190    XZZ      19.3038    YZZ     105.6676
       ZZZ      36.8089
    Hexadecapole Moments (Debye-Ang^3)
      XXXX  -22544.8117   XXXY    -325.6571   XXYY   -4143.7078
      XYYY     462.2386   YYYY   -5415.0006   XXXZ    1965.6532
      XXYZ     477.7301   XYYZ     655.6884   YYYZ     148.7734
      XXZZ   -4369.5484   XYZZ      18.2326   YYZZ   -1580.5630
      XZZZ    1058.5678   YZZZ     267.6532   ZZZZ   -3555.5774
 -----------------------------------------------------------------
 Calculating analytic gradient of the SCF energy
 Gradient of SCF Energy
            1           2           3           4           5           6
    1   0.0144879   0.0183435  -0.0226456   0.0198161   0.0206119  -0.0975120
    2   0.0002135   0.0201591  -0.0126230  -0.0304374   0.0523127  -0.0550235
    3   0.0035298   0.0340293  -0.0450664  -0.0346451   0.0067605   0.0339056
            7           8           9          10          11          12
    1   0.1036649  -0.0104613  -0.0131464  -0.0179137  -0.0037836   0.0076898
    2  -0.0527790   0.0269907  -0.0670654  -0.0140614   0.0155925  -0.0192682
    3  -0.0726237   0.0192131  -0.0171342  -0.0317168   0.0064442   0.0188841
           13          14          15          16          17          18
    1  -0.0041128   0.0099613   0.0166523  -0.0108390  -0.0032175   0.0070042
    2  -0.0177903  -0.0139741   0.0486002   0.0199867  -0.0097802  -0.0066443
    3  -0.0334977  -0.0097894  -0.0007135   0.0049293  -0.0039346   0.0449982
           19          20          21          22          23          24
    1   0.0156085   0.0639936  -0.0670236  -0.0547814   0.0430251   0.0172859
    2   0.0396118  -0.0455096   0.0768789   0.0248858  -0.0466748   0.0413140
    3  -0.0112873  -0.0381705   0.0720553  -0.0111328  -0.0278849   0.0926298
           25          26          27          28          29          30
    1  -0.1232760   0.0201081  -0.0126097  -0.0071101   0.0216302  -0.0166626
    2  -0.0211407   0.0073470   0.0019226  -0.0095943  -0.0198841   0.0381430
    3  -0.0540691   0.0470911   0.0000019  -0.0111013  -0.0334616  -0.0146803
           31          32          33          34          35          36
    1  -0.0309714   0.0077348   0.0048888  -0.0143690   0.0068738  -0.0301425
    2  -0.0227933   0.0118609  -0.0107095  -0.0276953   0.0043553  -0.0101720
    3   0.0117363  -0.0041604   0.0375138  -0.0173402   0.0119689   0.0139847
           37          38          39          40          41          42
    1  -0.0042775  -0.0202984   0.0439429  -0.0032308   0.0204460  -0.0021962
    2   0.0093039  -0.0029307   0.0040812  -0.0064801  -0.0055995   0.0232913
    3  -0.0411209  -0.0122572  -0.0086840   0.0382843  -0.0131524   0.0343906
           43          44          45          46          47          48
    1  -0.0401872   0.0260765  -0.0288354  -0.0103073   0.0221934   0.0105495
    2  -0.0082270  -0.0303480   0.0433208  -0.0001306  -0.0131330   0.0063789
    3  -0.0054914  -0.0010793  -0.0047721  -0.0005683  -0.0156001   0.0242476
           49          50          51          52          53          54
    1   0.0045405   0.0180884  -0.0170544  -0.0018271  -0.0286697   0.0322678
    2  -0.0022042  -0.0191808   0.0015489  -0.0141141   0.0174625   0.0221894
    3   0.0072353   0.0016223   0.0268828  -0.0085604   0.0209342  -0.0002913
           55          56          57          58          59          60
    1   0.0039476  -0.0371446   0.0275014   0.0107163   0.0895899  -0.0309681
    2   0.0134518  -0.0252624  -0.0204890   0.1178566  -0.0232273  -0.0468389
    3   0.0121113  -0.0024115  -0.0209220   0.0332970  -0.0596041   0.0136032
           61          62          63          64          65          66
    1   0.0040679  -0.0448708   0.0160962  -0.0153574   0.0614004   0.0149973
    2   0.0109464   0.0230491  -0.0150826  -0.0128345   0.0087552   0.0278924
    3  -0.0002071   0.0135454  -0.0005735   0.0120163  -0.0254662  -0.0046750
 Max gradient component =       1.233E-01
 RMS gradient           =       3.180E-02
 Computing fast CPCM-SWIG gradient
 Updating gradient with PCM contributions...
 -- total gradient after adding PCM contribution --
---------------------------------------------------
  Atom         X              Y              Z     
---------------------------------------------------
   1      -0.000048      -0.000091       0.000092
   2      -0.000029      -0.000058       0.000077
   3      -0.000001       0.000011      -0.000007
   4      -0.000055       0.000020       0.000029
   5       0.000026       0.000032      -0.000032
   6       0.000045       0.000035      -0.000027
   7      -0.000004       0.000028       0.000002
   8       0.000069      -0.000033       0.000024
   9      -0.000072       0.000007      -0.000011
  10       0.000027       0.000004      -0.000080
  11      -0.000067       0.000036      -0.000031
  12       0.000015       0.000009       0.000009
  13       0.000018      -0.000033      -0.000003
  14      -0.000030       0.000031       0.000064
  15       0.000014      -0.000009      -0.000010
  16      -0.000012      -0.000088      -0.000082
  17      -0.000112       0.000017      -0.000028
  18       0.000016       0.000017       0.000027
  19       0.000017       0.000003       0.000041
  20       0.000030      -0.000068       0.000076
  21      -0.000009       0.000015       0.000004
  22       0.000026       0.000041      -0.000007
  23      -0.000016      -0.000006      -0.000018
  24      -0.000034       0.000013       0.000022
  25       0.000013      -0.000017       0.000012
  26      -0.000027       0.000030      -0.000005
  27       0.000057      -0.000077      -0.000023
  28       0.000028       0.000070      -0.000045
  29      -0.000007      -0.000004      -0.000006
  30      -0.000025       0.000008       0.000020
  31      -0.000007      -0.000016      -0.000012
  32       0.000091      -0.000048       0.000064
  33       0.000010      -0.000003      -0.000010
  34      -0.000019       0.000004      -0.000026
  35      -0.000088       0.000101      -0.000021
  36       0.000001      -0.000026      -0.000007
  37       0.000046      -0.000005      -0.000002
  38       0.000006      -0.000146       0.000024
  39       0.000001       0.000017      -0.000006
  40      -0.000015      -0.000000      -0.000001
  41       0.000071       0.000083      -0.000097
  42      -0.000038      -0.000022       0.000030
  43      -0.000025       0.000013       0.000045
  44       0.000010      -0.000048       0.000093
  45      -0.000023      -0.000009      -0.000040
  46       0.000016      -0.000003      -0.000047
  47       0.000009       0.000013      -0.000007
  48       0.000008      -0.000009      -0.000001
  49       0.000008       0.000033      -0.000064
  50       0.000007      -0.000015      -0.000002
  51       0.000008      -0.000041       0.000010
  52      -0.000046       0.000020       0.000014
  53      -0.000001       0.000001      -0.000001
  54       0.000016      -0.000005      -0.000004
  55      -0.000010       0.000047      -0.000009
  56       0.000001      -0.000008      -0.000025
  57       0.000025       0.000029      -0.000000
  58      -0.000003      -0.000001       0.000013
  59       0.000008       0.000020      -0.000018
  60       0.000052       0.000034       0.000129
  61      -0.000011       0.000051      -0.000016
  62       0.000024       0.000029      -0.000074
  63      -0.000012      -0.000024       0.000058
  64       0.000042       0.000001      -0.000066
  65      -0.000004      -0.000010      -0.000011
  66      -0.000008       0.000002       0.000003
---------------------------------------------------
 Number of fixed atoms: 0
 Gradient time:  CPU 19534.48 s  wall 1023.20 s

     Step 48	:
        Energy is -3128.6703776553
                            Maximum         Tolerance       Converged?
         Gradient           7.10019559e-05	3.00000000e-04	true
         Displacement       2.74244117e-03	1.20000000e-03	false
         Energy change      9.29011549e-07	1.00000000e-06	true

	 Optimization Converged in 48 cycles

 *****************************************************
             End of BFGS Algorithm
 *****************************************************
		----------------------------------
		   Verification of Optimization
		----------------------------------

 Eigenvalues of Hessian in Optimization Verification
   0.00118860   0.00233899   0.00341422   0.00662514   0.01212104
   0.01574119   0.02266010   0.02471729   0.04175444   0.05194446
   0.07938926   0.09280546   0.09989314   0.10000787   0.10001534
   0.10001654   0.10001798   0.10006232   0.10008038   0.10009852
   0.10013238   0.10016829   0.10020051   0.10040097   0.10051011
   0.10083664   0.10113393   0.10138660   0.10153676   0.10211689
   0.10273254   0.10420582   0.10438399   0.10777684   0.10846965
   0.11170154   0.11376415   0.11460761   0.11546823   0.11739508
   0.11874515   0.11925258   0.12122870   0.12232321   0.12328726
   0.12553618   0.12586203   0.12651101   0.12710380   0.12721844
   0.12915561   0.12923536   0.13270015   0.13324617   0.13336240
   0.13458303   0.13671637   0.13766678   0.13928251   0.14023339
   0.14062987   0.14114230   0.14281907   0.14459958   0.14658190
   0.14730489   0.15098927   0.15207653   0.15218563   0.15363128
   0.15507198   0.15668697   0.15916590   0.16069368   0.16233075
   0.16298154   0.16911218   0.17178491   0.17338986   0.17606388
   0.17639636   0.17797951   0.17828217   0.17956071   0.18139909
   0.18171803   0.18261944   0.18797367   0.18940712   0.19058084
   0.19422369   0.19549997   0.19619649   0.19686399   0.19830480
   0.19882367   0.19947596   0.19969499   0.19984231   0.19991431
   0.19996234   0.20001151   0.20010037   0.20039398   0.20076730
   0.20135193   0.20181115   0.20326075   0.20694115   0.20989934
   0.21144138   0.21643443   0.21682515   0.21885460   0.22610477
   0.23117220   0.23632079   0.25280728   0.26572153   0.26947671
   0.28821091   0.31813518   0.34835534   0.36071043   0.39920066
   0.42203349   0.43387313   0.44014082   0.44167621   0.44981859
   0.45849855   0.46490810   0.47477136   0.47611707   0.48228324
   0.48482434   0.48791752   0.49109093   0.49357646   0.49559658
   0.49709284   0.49821073   0.49931698   0.49941190   0.49966494
   0.49977591   0.49980141   0.49989878   0.49994623   0.49995400
   0.49996837   0.49998904   0.49999928   0.49999979   0.50000001
   0.50000003   0.50000004   0.50000008   0.50000013   0.50000033
   0.50000040   0.50000079   0.50000174   0.50000227   0.50000383
   0.50000518   0.50000850   0.50001944   0.50002490   0.50004088
   0.50006433   0.50009323   0.50019203   0.50024708   0.50040891
   0.50058445   0.50108240   0.50157543   0.50275639   0.50420795
   0.50640272   0.51034878   0.51340391   0.51694422   0.52022465
   0.52231659   0.53144793   0.54360829   0.57567075   0.59469183
   0.62211706   0.70274158

 Found a minimum
		---------------------------------
		       End of Verification
		---------------------------------

 Final energy is -3128.670377655347

	******************************
	**  OPTIMIZATION CONVERGED  **
	******************************
 Adding empirical dispersion correction 
 ----------------------------------------------------------------
 Doing -D3(BJ) with
 s6  =   1.00000
 s8  =   1.98890
 a1  =   0.39810
 a2  =   4.42110
 -D3 energy without 3body term =     -0.1611319246 hartrees
 ----------------------------------------------------------------
             Standard Nuclear Orientation (Angstroms)
    I     Atom           X                Y                Z
 ----------------------------------------------------------------
    1      C      -2.2496238450     1.3623693989    -2.3699220318
    2      C      -3.7181726756    -0.8202695971     1.9479103578
    3      H      -3.2435504357    -0.5778733350     2.9171162439
    4      N      -2.8268565381    -1.6730349201     1.1719180636
    5      H      -3.2176519873    -2.6129589556     1.0661819675
    6      C      -4.9909835126    -1.6714986492     2.2701247852
    7      O      -5.8945272753    -1.0831460011     2.9108756999
    8      C      -1.6570871048    -1.3281780477     0.6199004016
    9      O      -1.2338185278    -0.1295772065     0.7849513791
   10      N      -2.5436251817     2.1558163265    -1.3478348852
   11      C      -3.8615942788     2.7051329078    -0.9978288692
   12      H      -4.1483903187     3.4680527644    -1.7387247629
   13      H      -3.6822883464     3.2189117499    -0.0471109081
   14      C      -0.9115929771    -2.3231898610    -0.1142796346
   15      H      -1.2583067593    -3.3563363208    -0.0843928100
   16      C       0.2300619600    -2.0140422445    -0.8239271201
   17      C       1.0137174232    -3.1076043821    -1.5214367157
   18      H       0.8695113412    -2.9994886818    -2.6098432109
   19      H       0.6375339579    -4.1048916688    -1.2471111573
   20      C       2.5369155681    -3.1003154591    -1.3256200337
   21      O       3.2492912189    -3.8122362523    -2.0488438715
   22      N       3.0198529503    -2.3172453771    -0.3465404315
   23      H       2.3996465112    -1.6944458369     0.1663513035
   24      C       4.5437667304    -1.1618433218     1.1671706248
   25      O       5.7111086998    -0.9033592654     1.5473812558
   26      N       2.4162539911     2.2088686019    -0.4576683857
   27      C       2.0911256439     2.0747244902     0.8219591302
   28      C       3.0619943986     2.3652754058     1.9221721648
   29      H       2.5200056168     2.8509660065     2.7460650262
   30      H       3.4506100545     1.3927502505     2.2703941248
   31      H       3.8972230068     3.0002913958     1.6048113359
   32      C       3.7433522317     2.5146596029    -1.0045937676
   33      H       3.5587109296     2.8089109773    -2.0464240399
   34      H       4.1493518022     3.3887508937    -0.4758466098
   35      C       4.7092133531     1.3302983175    -0.9190121693
   36      H       5.6809497815     1.6657261172    -1.3237528012
   37      H       4.8918612639     1.0874949624     0.1379213411
   38      C       4.2255858543     0.0896711350    -1.6798564523
   39      H       3.1570611672    -0.0757223878    -1.4719488891
   40      H       4.2931223522     0.2958807904    -2.7623045474
   41      C       4.9979668548    -1.1989503370    -1.3506947616
   42      H       4.9798566207    -1.8729499814    -2.2200257354
   43      H       6.0545740885    -0.9777643816    -1.1281431352
   44      C       4.4217040631    -1.9842377116    -0.1471326074
   45      H       5.0094831093    -2.9091417387    -0.0299743272
   46      C      -4.9822824223     1.6579308236    -0.8592816050
   47      H      -5.8008142210     2.1557746129    -0.3102968661
   48      H      -5.3873559297     1.4207916361    -1.8551002444
   49      C      -3.2026009107     1.1652192687    -3.5094766779
   50      H      -3.9366936982     1.9750655742    -3.5964039003
   51      H      -2.6133449450     1.1047684040    -4.4353607490
   52      C      -4.6021587445     0.3473645251    -0.1597706008
   53      H      -3.8424841240    -0.1806593215    -0.7600241995
   54      H      -5.4910641241    -0.3068178877    -0.1589391257
   55      C      -4.0852902486     0.5126820247     1.2683943554
   56      H      -3.2079119339     1.1709211887     1.2687711028
   57      H      -4.8637197940     0.9707713625     1.8988354999
   58      O      -4.9885560288    -2.8682928282     1.8627871898
   59      O       3.4602184572    -0.7923901167     1.7089010039
   60      O       0.7191914389    -0.8182812374    -0.9842748791
   61      Fe     -0.1126912277     0.9508808003    -0.5431319384
   62      O      -1.1172154994     0.7663304100    -2.3676400682
   63      O      -1.5632554587     2.3341676538    -0.4161433282
   64      O       1.4554931507     1.8818241207    -1.3695621846
   65      O       0.9147993812     1.6494134238     1.0997761187
   66      H      -3.7374560981     0.2097025900    -3.3885121375
 ----------------------------------------------------------------
 Nuclear Repulsion Energy =        5367.74554213 hartrees
 There are      152 alpha and      147 beta electrons

Z-matrix Print:
$molecule
-2 6
Fe
O  1 2.002210
N  2 1.364394 1 112.774462
C  3 1.327083 2 116.596518 1 -10.677233 0
O  4 1.281333 3 117.874366 2 0.204204 0
C  3 1.467592 2 115.952607 1 162.239709 0
H  6 1.098220 3 104.911587 2 22.829140 0
H  6 1.099293 3 108.687111 2 137.893458 0
C  4 1.495819 3 122.044258 2 178.411525 0
H  9 1.096161 4 113.211665 3 19.681556 0
H  9 1.099294 4 108.485942 3 141.664524 0
H  9 1.103669 4 106.824853 3 -100.902804 0
C  6 1.530661 3 112.863911 2 -98.761316 0
H  13 1.099737 6 109.230421 3 -63.958481 0
H  13 1.104807 6 107.433838 3 -178.329330 0
C  13 1.533602 6 113.528906 3 59.879637 0
H  16 1.101057 13 109.504099 6 -44.268674 0
H  16 1.103983 13 108.423780 6 70.741049 0
C  16 1.538007 13 114.408745 6 -166.599506 0
H  19 1.100154 16 109.628498 13 -151.533368 0
H  19 1.102212 16 110.885101 13 -33.172303 0
C  19 1.548327 16 113.853462 13 88.273093 0
H  22 1.102115 19 108.045555 16 177.048828 0
N  22 1.454594 19 111.607007 16 56.410543 0
H  24 1.017641 22 112.219435 19 -101.320765 0
C  24 1.343512 22 125.433894 19 62.433460 0
O  26 1.239904 24 123.587222 22 12.357774 0
C  26 1.535751 24 116.885336 22 -168.550792 0
H  28 1.100614 26 108.150902 24 -112.803945 0
H  28 1.103228 26 104.771912 24 133.487359 0
C  28 1.515425 26 116.793752 24 13.552713 0
O  31 1.301846 28 114.320062 26 47.746943 0
C  31 1.379329 28 120.204143 26 -133.354482 0
H  33 1.090181 31 119.323508 28 -1.705949 0
C  33 1.443894 31 122.309594 28 176.979056 0
O  35 1.281812 33 122.640336 31 -7.906893 0
N  35 1.338660 33 118.902422 31 173.287290 0
H  37 1.023405 35 121.848563 33 -1.691600 0
C  37 1.457332 35 127.104867 33 179.824406 0
H  39 1.106066 37 109.413285 35 -68.914991 0
C  39 1.540544 37 114.656928 35 51.800432 0
H  41 1.096846 39 109.176473 37 -71.320460 0
H  41 1.101478 39 106.009440 37 172.106999 0
C  41 1.527789 39 113.535732 37 51.319064 0
H  44 1.102823 41 109.120791 39 -57.207321 0
H  44 1.103679 41 109.627878 39 58.172853 0
C  44 1.533425 41 114.696593 39 179.712098 0
H  47 1.100897 44 108.647577 41 -177.137284 0
H  47 1.104186 44 110.017129 41 -61.618022 0
C  47 1.540055 44 116.218946 41 58.961033 0
H  50 1.095438 47 111.097448 44 -76.551167 0
H  50 1.101465 47 109.999889 44 164.477443 0
N  50 1.470135 47 114.816806 44 40.582967 0
C  53 1.326897 50 127.261703 47 53.450009 0
O  54 1.279694 53 118.242915 50 -166.038242 0
O  53 1.364179 50 115.646539 47 -116.786789 0
C  54 1.498539 53 121.568827 50 14.369900 0
H  57 1.096494 54 112.884324 53 21.063142 0
H  57 1.099153 54 107.871180 53 142.100103 0
H  57 1.101687 54 109.837250 53 -100.701950 0
C  22 1.555193 19 111.070320 16 -64.444167 0
O  61 1.254616 22 115.981712 19 -63.619726 0
O  61 1.266509 22 116.653297 19 114.186171 0
C  39 1.564756 37 106.787271 35 175.929520 0
O  64 1.254238 39 115.848739 37 -178.241552 0
O  64 1.264218 39 116.556372 37 2.076147 0
$end

 -----------------------------------------------------------------------
                  END OF GEOMETRY OPTIMIZER USING LIBOPT3               
 -----------------------------------------------------------------------
 Total job time:  122076.92s(wall), 2029940.56s(cpu) 
 Thu Jan 25 20:33:30 2024

        *************************************************************
        *                                                           *
        *  Thank you very much for using Q-Chem.  Have a nice day.  *
        *                                                           *
        *************************************************************


