
Running Job 1 of 1 C_FeABstar_enol_ccL_2sextet_SkS_camb3lyp_augccpVDZ_pcmH2O_tddft100.in
qchem C_FeABstar_enol_ccL_2sextet_SkS_camb3lyp_augccpVDZ_pcmH2O_tddft100.in_2053292.0 /data/scratch/C_FeABstar_enol_ccL_2sextet_SkS_camb3lyp_augccpVDZ_pcmH2O_tddft10020240216161410/ 0
/opt/qchem/6.0.1/exe/qcprog.exe_s C_FeABstar_enol_ccL_2sextet_SkS_camb3lyp_augccpVDZ_pcmH2O_tddft100.in_2053292.0 /data/scratch/C_FeABstar_enol_ccL_2sextet_SkS_camb3lyp_augccpVDZ_pcmH2O_tddft10020240216161410/
                  Welcome to Q-Chem
     A Quantum Leap Into The Future Of Chemistry


 Q-Chem 6.0, Q-Chem, Inc., Pleasanton, CA (2022)

 E. Epifanovsky,  A. T. B. Gilbert,  Xintian Feng,  Joonho Lee,  Yuezhi Mao,  
 N. Mardirossian,  P. Pokhilko,  A. White,  M. Wormit,  M. P. Coons,  
 A. L. Dempwolff,  Zhengting Gan,  D. Hait,  P. R. Horn,  L. D. Jacobson,  
 I. Kaliman,  J. Kussmann,  A. W. Lange,  Ka Un Lao,  D. S. Levine,  Jie Liu,  
 S. C. McKenzie,  A. F. Morrison,  K. Nanda,  F. Plasser,  D. R. Rehn,  
 M. L. Vidal,  Zhi-Qiang You,  Ying Zhu,  B. Alam,  B. Albrecht,  
 A. Aldossary,  E. Alguire,  J. H. Andersen,  V. Athavale,  D. Barton,  
 K. Begam,  A. Behn,  N. Bellonzi,  Y. A. Bernard,  E. J. Berquist,  
 H. Burton,  A. Carreras,  K. Carter-Fenk,  Romit Chakraborty,  
 Chandrima Chakravarty,  Junhan Chen,  A. D. Chien,  K. D. Closser,  
 V. Cofer-Shabica,  L. Cunha,  S. Dasgupta,  Jia Deng,  M. de Wergifosse,  
 M. Diedenhofen,  Hainam Do,  S. Ehlert,  Po-Tung Fang,  S. Fatehi,  
 Qingguo Feng,  T. Friedhoff,  B. Ganoe,  J. Gayvert,  Qinghui Ge,  
 G. Gidofalvi,  M. Goldey,  J. Gomes,  C. Gonzalez-Espinoza,  S. Gulania,  
 A. Gunina,  J. A. Gyamfi,  M. W. D. Hanson-Heine,  P. H. P. Harbach,  
 A. W. Hauser,  M. F. Herbst,  M. Hernandez Vera,  M. Hodecker,  
 Z. C. Holden,  S. Houck,  Xunkun Huang,  Kerwin Hui,  B. C. Huynh,  
 K. Ikeda,  M. Ivanov,  Hyunjun Ji,  Zuxin Jin,  Hanjie Jiang,  B. Kaduk,  
 S. Kaehler,  R. Kang,  K. Khistyaev,  Jaehoon Kim,  Yongbin Kim,  
 P. Klunzinger,  Z. Koczor-Benda,  Joong Hoon Koh,  D. Kosenkov,  
 Saikiran Kotaru,  L. Koulias,  T. Kowalczyk,  C. M. Krauter,  K. Kue,  
 A. Kunitsa,  T. Kus,  A. Landau,  K. V. Lawler,  D. Lefrancois,  S. Lehtola,  
 Rain Li,  Shaozhi Li,  Yi-Pei Li,  Jiashu Liang,  M. Liebenthal,  
 Hung-Hsuan Lin,  You-Sheng Lin,  Fenglai Liu,  Kuan-Yu Liu,  
 M. Loipersberger,  A. Luenser,  C. Malbon,  A. Manjanath,  P. Manohar,  
 E. Mansoor,  S. F. Manzer,  Shan-Ping Mao,  A. V. Marenich,  T. Markovich,  
 S. Mason,  F. Matz,  S. A. Maurer,  P. F. McLaughlin,  M. F. S. J. Menger,  
 J.-M. Mewes,  S. A. Mewes,  P. Morgante,  Mohammad Mostafanejad,  
 J. W. Mullinax,  K. J. Oosterbaan,  G. Paran,  V. Parravicini,  
 Alexander C. Paul,  Suranjan K. Paul,  F. Pavosevic,  Zheng Pei,  S. Prager,  
 E. I. Proynov,  E. Ramos,  B. Rana,  A. E. Rask,  A. Rettig,  R. M. Richard,  
 F. Rob,  E. Rossomme,  T. Scheele,  M. Scheurer,  M. Schneider,  
 P. E. Schneider,  N. Sergueev,  S. M. Sharada,  Hengyuan Shen,  
 W. Skomorowski,  D. W. Small,  C. J. Stein,  Yingli Su,  Yu-Chuan Su,  
 E. J. Sundstrom,  Zhen Tao,  J. Thirman,  Hung-Yi Tsai,  T. Tsuchimochi,  
 N. M. Tubman,  C. Utku,  S. P. Veccham,  O. Vydrov,  J. Wenzel,  
 Jonathan Wong,  J. Witte,  A. Yamada,  Chou-Hsun Yang,  Kun Yao,  
 S. Yeganeh,  S. R. Yost,  A. Zech,  F. Zeller,  Igor Ying Zhang,  
 Xing Zhang,  Yu Zhang,  D. Zuev,  A. Aspuru-Guzik,  A. T. Bell,  
 N. A. Besley,  K. B. Bravaya,  B. R. Brooks,  D. Casanova,  Jeng-Da Chai,  
 Hsing-Ta Chen,  S. Coriani,  C. J. Cramer,  A. E. DePrince, III,  
 R. A. DiStasio Jr.,  A. Dreuw,  B. D. Dunietz,  T. R. Furlani,  
 W. A. Goddard III,  S. Grimme,  S. Hammes-Schiffer,  T. Head-Gordon,  
 W. J. Hehre,  Chao-Ping Hsu,  T.-C. Jagau,  Yousung Jung,  A. Klamt,  
 Jing Kong,  D. S. Lambrecht,  Xiangyuan Li,  WanZhen Liang,  N. J. Mayhall,  
 C. W. McCurdy,  J. B. Neaton,  T. Neudecker,  C. Ochsenfeld,  
 J. A. Parkhill,  R. Peverati,  V. A. Rassolov,  Haisheng Ren,  Yihan Shao,  
 L. V. Slipchenko,  R. P. Steele,  J. E. Subotnik,  A. J. W. Thom,  
 A. Tkatchenko,  D. G. Truhlar,  T. Van Voorhis,  Fan Wang,  
 T. A. Wesolowski,  K. B. Whaley,  H. L. Woodcock III,  P. M. Zimmerman,  
 S. Faraji,  P. M. W. Gill,  M. Head-Gordon,  J. M. Herbert,  A. I. Krylov

 Contributors to earlier versions of Q-Chem not listed above: 
 R. D. Adamson,  B. Austin,  R. Baer,  J. Baker,  G. J. O. Beran,  
 K. Brandhorst,  S. T. Brown,  E. F. C. Byrd,  Arup K. Chakraborty,  
 G. K. L. Chan,  Chun-Min Chang,  Yunqing Chen,  C.-L. Cheng,  
 Siu Hung Chien,  D. M. Chipman,  D. L. Crittenden,  H. Dachsel,  
 R. J. Doerksen,  A. D. Dutoi,  R. G. Edgar,  J. Fosso-Tande,  
 L. Fusti-Molnar,  D. Ghosh,  A. Ghysels,  A. Golubeva-Zadorozhnaya,  
 J. Gonthier,  M. S. Gordon,  S. R. Gwaltney,  G. Hawkins,  J. E. Herr,  
 A. Heyden,  S. Hirata,  E. G. Hohenstein,  G. Kedziora,  F. J. Keil,  
 C. Kelley,  Jihan Kim,  R. A. King,  R. Z. Khaliullin,  P. P. Korambath,  
 W. Kurlancheek,  A. Laurent,  A. M. Lee,  M. S. Lee,  S. V. Levchenko,  
 Ching Yeh Lin,  D. Liotard,  E. Livshits,  R. C. Lochan,  I. Lotan,  
 L. A. Martinez-Martinez,  P. E. Maslen,  N. Nair,  D. P. O'Neill,  
 D. Neuhauser,  E. Neuscamman,  C. M. Oana,  R. Olivares-Amaya,  R. Olson,  
 T. M. Perrine,  B. Peters,  P. A. Pieniazek,  A. Prociuk,  Y. M. Rhee,  
 J. Ritchie,  M. A. Rohrdanz,  E. Rosta,  N. J. Russ,  H. F. Schaefer III,  
 M. W. Schmidt,  N. E. Schultz,  S. Sharma,  N. Shenvi,  C. D. Sherrill,  
 A. C. Simmonett,  A. Sodt,  T. Stein,  D. Stuck,  K. S. Thanthiriwatte,  
 V. Vanovschi,  L. Vogt,  Tao Wang,  A. Warshel,  M. A. Watson,  
 C. F. Williams,  Q. Wu,  X. Xu,  Jun Yang,  W. Zhang,  Yan Zhao

   Please cite Q-Chem as follows:
  "Software for the frontiers of quantum chemistry:
   An overview of developments in the Q-Chem 5 package"
   J. Chem. Phys. 155, 084801 (2021)
   https://doi.org/10.1063/5.0055522 (open access)

 Q-Chem 6.0.2 for Intel X86 EM64T Linux

 Parts of Q-Chem use Armadillo 9.900.5 (Nocturnal Misbehaviour).
 http://arma.sourceforge.net/

 Q-Chem begins on Tue Feb 20 15:52:03 2024  

 Host: 
0

     Scratch files written to /data/scratch/C_FeABstar_enol_ccL_2sextet_SkS_camb3lyp_augccpVDZ_pcmH2O_tddft10020240216161410//
 Dec722 |scratch|qcdevops|jenkins|workspace|build_RNUM 8907   
 Processing $rem in /opt/qchem/6.0.1/config/preferences:
 Processing $rem in /home/sgardner/.qchemrc:
 Symmetry turned off for PCM/SM12/SMD calculation

 Checking the input file for inconsistencies... 	...done.

--------------------------------------------------------------
User input:
--------------------------------------------------------------
$molecule
-2 6
N   -2.1260228   -2.2722362    1.1477089
C   -4.0967826    2.4636873   -0.1834367
H   -4.8341795    3.0392528   -0.7682108
N   -2.8972312    2.2491310   -0.9745165
H   -2.0565259    2.5483147   -0.4753836
C   -3.6919935    3.3085441    1.0634481
O   -4.6385612    3.7008471    1.7877154
C   -2.8210677    1.6387211   -2.1685515
O   -3.8036237    1.2430891   -2.8100100
C   -1.9374313   -3.1047481    0.1279323
C   -2.9741386   -4.1346676   -0.2213915
H   -3.2999388   -4.7001565    0.6635503
H   -3.8623072   -3.6581728   -0.6654198
H   -2.5396948   -4.8251802   -0.9543278
C   -1.3907357    1.4843845   -2.7109809
H   -1.0552256    2.4610560   -3.0920101
H   -1.4390900    0.7728594   -3.5453977
C   -0.4468037    0.9645429   -1.6437095
C    0.4084867    1.8527023   -1.0128988
H    0.4438852    2.8818585   -1.3702588
C    1.2930259    1.4719364    0.0522416
O    1.2838084    0.3054737    0.5702017
N    2.1224926    2.4167858    0.5648121
H    2.0792469    3.2866818    0.0428955
C    4.4563785    1.5603899    0.0847579
O    5.6623053    1.5633005    0.4455620
N    2.8365537   -2.3071600    0.8592760
C    2.9728518   -2.1482287   -0.4552444
C    4.3183246   -2.0954857   -1.1082745
H    4.2557056   -2.6177151   -2.0736180
H    4.5465359   -1.0308105   -1.2944107
H    5.1167752   -2.5385438   -0.5013997
C    3.8953979   -2.2921350    1.8750032
H    3.4512803   -2.7766078    2.7555589
H    4.7235975   -2.9249027    1.5259693
C    4.3936995   -0.8781619    2.1918385
H    5.2190850   -0.9713599    2.9206427
H    4.8517598   -0.4552757    1.2886700
C    3.3033480    0.0590172    2.7414199
H    2.3423863   -0.1981155    2.2887350
H    3.2040244   -0.1203801    3.8273850
C    3.5554349    1.5623503    2.5389226
H    2.8532031    2.1218760    3.1805457
H    4.5690596    1.8085741    2.8963998
C    3.4689860    2.1920522    1.1250683
H    3.8470652    3.2162809    1.2688817
C   -4.3521273   -1.1581549    1.2926500
H   -4.7141457   -1.6041029    0.3495547
H   -5.2287312   -1.0913533    1.9613300
C   -3.3457743   -2.1145816    1.9393058
H   -3.7916302   -3.1068915    2.0890086
H   -3.0141030   -1.7408409    2.9183656
C   -3.7817968    0.2304209    1.0101556
H   -2.8652478    0.1200228    0.4115054
H   -3.4720710    0.7021956    1.9595284
C   -4.7526161    1.1422257    0.2616434
H   -5.1350145    0.6183194   -0.6291987
H   -5.6152901    1.4029940    0.8953623
O   -2.4539076    3.4933037    1.2436653
O    3.9796063    1.1263840   -0.9965059
O   -0.5640079   -0.3003728   -1.3901905
Fe    0.3245055   -1.4013242    0.0640597
O   -1.1445810   -1.3551078    1.3906814
O   -0.8557145   -3.0106973   -0.5422092
O    1.5598810   -2.3048871    1.3428435
O    1.9144397   -2.0006871   -1.1602503
$end

$rem
BASIS  =  gen
CIS_N_ROOTS  =  100
EXCHANGE  =  CAM-B3LYP
GUI  =  2
JOB_TYPE  =  SP
SCF_CONVERGENCE  =  8
SOLVENT_METHOD  =  PCM
UNRESTRICTED  =  1
BASIS GEN
PURECART 11
$end

$pcm
THEORY  CPCM
$end

$solvent
DIELECTRIC  78.39
$end

$van_der_waals
26   2.44
$end

!----------------------------------------------------------------------
! Basis Set Exchange
! Basis set: aug-cc-pVDZ
!----------------------------------------------------------------------

$basis
H     0
S   4   1.00
1.301000D+01           1.968500D-02
1.962000D+00           1.379770D-01
4.446000D-01           4.781480D-01
1.220000D-01           5.012400D-01
S   1   1.00
1.220000D-01           1.000000D+00
S   1   1.00
0.0297400              1.0000000
P   1   1.00
7.270000D-01           1.0000000
P   1   1.00
0.1410000              1.0000000
****
C     0
S   9   1.00
6.665000D+03           6.920000D-04
1.000000D+03           5.329000D-03
2.280000D+02           2.707700D-02
6.471000D+01           1.017180D-01
2.106000D+01           2.747400D-01
7.495000D+00           4.485640D-01
2.797000D+00           2.850740D-01
5.215000D-01           1.520400D-02
1.596000D-01          -3.191000D-03
S   9   1.00
6.665000D+03          -1.460000D-04
1.000000D+03          -1.154000D-03
2.280000D+02          -5.725000D-03
6.471000D+01          -2.331200D-02
2.106000D+01          -6.395500D-02
7.495000D+00          -1.499810D-01
2.797000D+00          -1.272620D-01
5.215000D-01           5.445290D-01
1.596000D-01           5.804960D-01
S   1   1.00
1.596000D-01           1.000000D+00
S   1   1.00
0.0469000              1.0000000
P   4   1.00
9.439000D+00           3.810900D-02
2.002000D+00           2.094800D-01
5.456000D-01           5.085570D-01
1.517000D-01           4.688420D-01
P   1   1.00
1.517000D-01           1.000000D+00
P   1   1.00
0.0404100              1.0000000
D   1   1.00
5.500000D-01           1.0000000
D   1   1.00
0.1510000              1.0000000
****
N     0
S   9   1.00
9.046000D+03           7.000000D-04
1.357000D+03           5.389000D-03
3.093000D+02           2.740600D-02
8.773000D+01           1.032070D-01
2.856000D+01           2.787230D-01
1.021000D+01           4.485400D-01
3.838000D+00           2.782380D-01
7.466000D-01           1.544000D-02
2.248000D-01          -2.864000D-03
S   9   1.00
9.046000D+03          -1.530000D-04
1.357000D+03          -1.208000D-03
3.093000D+02          -5.992000D-03
8.773000D+01          -2.454400D-02
2.856000D+01          -6.745900D-02
1.021000D+01          -1.580780D-01
3.838000D+00          -1.218310D-01
7.466000D-01           5.490030D-01
2.248000D-01           5.788150D-01
S   1   1.00
2.248000D-01           1.000000D+00
S   1   1.00
0.0612400              1.0000000
P   4   1.00
1.355000D+01           3.991900D-02
2.917000D+00           2.171690D-01
7.973000D-01           5.103190D-01
2.185000D-01           4.622140D-01
P   1   1.00
2.185000D-01           1.000000D+00
P   1   1.00
0.0561100              1.0000000
D   1   1.00
8.170000D-01           1.0000000
D   1   1.00
0.2300000              1.0000000
****
O     0
S   9   1.00
1.172000D+04           7.100000D-04
1.759000D+03           5.470000D-03
4.008000D+02           2.783700D-02
1.137000D+02           1.048000D-01
3.703000D+01           2.830620D-01
1.327000D+01           4.487190D-01
5.025000D+00           2.709520D-01
1.013000D+00           1.545800D-02
3.023000D-01          -2.585000D-03
S   9   1.00
1.172000D+04          -1.600000D-04
1.759000D+03          -1.263000D-03
4.008000D+02          -6.267000D-03
1.137000D+02          -2.571600D-02
3.703000D+01          -7.092400D-02
1.327000D+01          -1.654110D-01
5.025000D+00          -1.169550D-01
1.013000D+00           5.573680D-01
3.023000D-01           5.727590D-01
S   1   1.00
3.023000D-01           1.000000D+00
S   1   1.00
0.0789600              1.0000000
P   4   1.00
1.770000D+01           4.301800D-02
3.854000D+00           2.289130D-01
1.046000D+00           5.087280D-01
2.753000D-01           4.605310D-01
P   1   1.00
2.753000D-01           1.000000D+00
P   1   1.00
0.0685600              1.0000000
D   1   1.00
1.185000D+00           1.0000000
D   1   1.00
0.3320000              1.0000000
****
Fe     0
S   20   1.00
4.316265D+06           8.048803D-06
6.463424D+05           6.258306D-05
1.470897D+05           3.290239D-04
4.166152D+04           1.387355D-03
1.359077D+04           5.023256D-03
4.905750D+03           1.610140D-02
1.912746D+03           4.590034D-02
7.926043D+02           1.136154D-01
3.448065D+02           2.283869D-01
1.558999D+02           3.221159D-01
7.223091D+01           2.383661D-01
3.272506D+01           7.404667D-02
1.566762D+01           9.214197D-02
7.503483D+00           9.339790D-02
3.312223D+00           1.573965D-02
1.558471D+00          -4.186682D-04
6.839140D-01           5.376318D-05
1.467570D-01          -3.816654D-05
7.058300D-02           4.319603D-05
3.144900D-02          -3.401019D-06
S   20   1.00
4.316265D+06          -4.155954D-06
6.463424D+05          -3.231401D-05
1.470897D+05          -1.699525D-04
4.166152D+04          -7.171369D-04
1.359077D+04          -2.603625D-03
4.905750D+03          -8.399109D-03
1.912746D+03          -2.434109D-02
7.926043D+02          -6.251948D-02
3.448065D+02          -1.365929D-01
1.558999D+02          -2.312707D-01
7.223091D+01          -2.383734D-01
3.272506D+01           3.123837D-02
1.566762D+01           5.086818D-01
7.503483D+00           4.987695D-01
3.312223D+00           9.033552D-02
1.558471D+00          -6.005337D-03
6.839140D-01           2.312454D-04
1.467570D-01          -5.643680D-04
7.058300D-02           4.992260D-04
3.144900D-02          -1.015293D-04
S   20   1.00
4.316265D+06           9.532178D-07
6.463424D+05           7.414605D-06
1.470897D+05           3.898393D-05
4.166152D+04           1.647152D-04
1.359077D+04           5.985980D-04
4.905750D+03           1.942390D-03
1.912746D+03           5.687237D-03
7.926043D+02           1.501329D-02
3.448065D+02           3.452455D-02
1.558999D+02           6.495820D-02
7.223091D+01           7.716194D-02
3.272506D+01          -1.873411D-02
1.566762D+01          -3.009185D-01
7.503483D+00          -4.554661D-01
3.312223D+00           1.286463D-01
1.558471D+00           7.183316D-01
6.839140D-01           4.051743D-01
1.467570D-01           2.168227D-02
7.058300D-02          -8.343566D-03
3.144900D-02           3.658979D-03
S   20   1.00
4.316265D+06          -2.063008D-07
6.463424D+05          -1.604169D-06
1.470897D+05          -8.438437D-06
4.166152D+04          -3.563151D-05
1.359077D+04          -1.295998D-04
4.905750D+03          -4.201534D-04
1.912746D+03          -1.231954D-03
7.926043D+02          -3.248922D-03
3.448065D+02          -7.493717D-03
1.558999D+02          -1.410102D-02
7.223091D+01          -1.691600D-02
3.272506D+01           4.218996D-03
1.566762D+01           6.833810D-02
7.503483D+00           1.098201D-01
3.312223D+00          -4.009005D-02
1.558471D+00          -2.174739D-01
6.839140D-01          -2.465135D-01
1.467570D-01           2.731435D-01
7.058300D-02           5.748321D-01
3.144900D-02           3.012713D-01
S   20   1.00
4.316265D+06          -4.009367D-07
6.463424D+05          -3.189255D-06
1.470897D+05          -1.623079D-05
4.166152D+04          -7.157920D-05
1.359077D+04          -2.463958D-04
4.905750D+03          -8.544907D-04
1.912746D+03          -2.307593D-03
7.926043D+02          -6.728292D-03
3.448065D+02          -1.366165D-02
1.558999D+02          -3.062240D-02
7.223091D+01          -2.631137D-02
3.272506D+01          -9.760183D-03
1.566762D+01           1.801906D-01
7.503483D+00           1.529634D-01
3.312223D+00           5.505413D-02
1.558471D+00          -9.551364D-01
6.839140D-01           2.586813D-01
1.467570D-01           1.834049D+00
7.058300D-02          -9.333240D-01
3.144900D-02          -6.981605D-01
S   1   1.00
3.144900D-02           1.000000D+00
S   1   1.00
1.401000D-02           1.000000D+00
P   16   1.00
1.774569D+04           4.100000D-05
4.200721D+03           3.690000D-04
1.364429D+03           2.129000D-03
5.220806D+02           9.369000D-03
2.214595D+02           3.309700D-02
1.009096D+02           9.443100D-02
4.840115D+01           2.080770D-01
2.398536D+01           3.323330D-01
1.218250D+01           3.329870D-01
6.242298D+00           1.568430D-01
3.110944D+00           2.154900D-02
1.509958D+00          -2.095000D-03
7.108450D-01          -1.739000D-03
2.731900D-01          -3.000000D-04
1.042330D-01           2.900000D-05
3.829100D-02          -1.100000D-05
P   16   1.00
1.774569D+04          -1.500000D-05
4.200721D+03          -1.300000D-04
1.364429D+03          -7.510000D-04
5.220806D+02          -3.329000D-03
2.214595D+02          -1.191200D-02
1.009096D+02          -3.493300D-02
4.840115D+01          -7.998900D-02
2.398536D+01          -1.346360D-01
1.218250D+01          -1.385980D-01
6.242298D+00           3.027800D-02
3.110944D+00           3.332160D-01
1.509958D+00           4.561530D-01
7.108450D-01           2.850510D-01
2.731900D-01           4.614400D-02
1.042330D-01          -3.249000D-03
3.829100D-02           1.357000D-03
P   16   1.00
1.774569D+04           5.000000D-06
4.200721D+03           4.200000D-05
1.364429D+03           2.410000D-04
5.220806D+02           1.085000D-03
2.214595D+02           3.831000D-03
1.009096D+02           1.142300D-02
4.840115D+01           2.579200D-02
2.398536D+01           4.481800D-02
1.218250D+01           4.459800D-02
6.242298D+00          -1.117700D-02
3.110944D+00          -1.381340D-01
1.509958D+00          -1.882850D-01
7.108450D-01          -1.073990D-01
2.731900D-01           4.448630D-01
1.042330D-01           6.402390D-01
3.829100D-02           6.445700D-02
P   16   1.00
1.774569D+04           3.000000D-06
4.200721D+03           2.900000D-05
1.364429D+03           1.650000D-04
5.220806D+02           7.340000D-04
2.214595D+02           2.626000D-03
1.009096D+02           7.725000D-03
4.840115D+01           1.773300D-02
2.398536D+01           3.005500D-02
1.218250D+01           3.109400D-02
6.242298D+00          -1.004800D-02
3.110944D+00          -8.830600D-02
1.509958D+00          -1.298240D-01
7.108450D-01          -7.693700D-02
2.731900D-01           2.126610D-01
1.042330D-01           5.730610D-01
3.829100D-02           3.696510D-01
P   1   1.00
3.829100D-02           1.000000D+00
P   1   1.00
1.407000D-02           1.000000D+00
D   8   1.00
1.133440D+02           3.530000D-03
3.364140D+01           2.578400D-02
1.233100D+01           9.911900D-02
4.994780D+00           2.390730D-01
2.072800D+00           3.571990D-01
8.307530D-01           3.621880D-01
3.091780D-01           2.364610D-01
1.001300D-01           6.011800D-02
D   8   1.00
1.133440D+02          -3.890000D-03
3.364140D+01          -2.844200D-02
1.233100D+01          -1.124290D-01
4.994780D+00          -2.742570D-01
2.072800D+00          -3.155460D-01
8.307530D-01           5.710900D-02
3.091780D-01           5.636040D-01
1.001300D-01           3.846370D-01
D   1   1.00
1.001300D-01           1.000000D+00
D   1   1.00
3.243000D-02           1.000000D+00
F   2   1.00
3.224300D+00           4.222490D-01
7.758000D-01           7.714680D-01
F   1   1.00
2.749000D-01           1.000000D+00
****
$end


--------------------------------------------------------------
 ----------------------------------------------------------------
             Standard Nuclear Orientation (Angstroms)
    I     Atom           X                Y                Z
 ----------------------------------------------------------------
    1      N      -2.1260228000    -2.2722362000     1.1477089000
    2      C      -4.0967826000     2.4636873000    -0.1834367000
    3      H      -4.8341795000     3.0392528000    -0.7682108000
    4      N      -2.8972312000     2.2491310000    -0.9745165000
    5      H      -2.0565259000     2.5483147000    -0.4753836000
    6      C      -3.6919935000     3.3085441000     1.0634481000
    7      O      -4.6385612000     3.7008471000     1.7877154000
    8      C      -2.8210677000     1.6387211000    -2.1685515000
    9      O      -3.8036237000     1.2430891000    -2.8100100000
   10      C      -1.9374313000    -3.1047481000     0.1279323000
   11      C      -2.9741386000    -4.1346676000    -0.2213915000
   12      H      -3.2999388000    -4.7001565000     0.6635503000
   13      H      -3.8623072000    -3.6581728000    -0.6654198000
   14      H      -2.5396948000    -4.8251802000    -0.9543278000
   15      C      -1.3907357000     1.4843845000    -2.7109809000
   16      H      -1.0552256000     2.4610560000    -3.0920101000
   17      H      -1.4390900000     0.7728594000    -3.5453977000
   18      C      -0.4468037000     0.9645429000    -1.6437095000
   19      C       0.4084867000     1.8527023000    -1.0128988000
   20      H       0.4438852000     2.8818585000    -1.3702588000
   21      C       1.2930259000     1.4719364000     0.0522416000
   22      O       1.2838084000     0.3054737000     0.5702017000
   23      N       2.1224926000     2.4167858000     0.5648121000
   24      H       2.0792469000     3.2866818000     0.0428955000
   25      C       4.4563785000     1.5603899000     0.0847579000
   26      O       5.6623053000     1.5633005000     0.4455620000
   27      N       2.8365537000    -2.3071600000     0.8592760000
   28      C       2.9728518000    -2.1482287000    -0.4552444000
   29      C       4.3183246000    -2.0954857000    -1.1082745000
   30      H       4.2557056000    -2.6177151000    -2.0736180000
   31      H       4.5465359000    -1.0308105000    -1.2944107000
   32      H       5.1167752000    -2.5385438000    -0.5013997000
   33      C       3.8953979000    -2.2921350000     1.8750032000
   34      H       3.4512803000    -2.7766078000     2.7555589000
   35      H       4.7235975000    -2.9249027000     1.5259693000
   36      C       4.3936995000    -0.8781619000     2.1918385000
   37      H       5.2190850000    -0.9713599000     2.9206427000
   38      H       4.8517598000    -0.4552757000     1.2886700000
   39      C       3.3033480000     0.0590172000     2.7414199000
   40      H       2.3423863000    -0.1981155000     2.2887350000
   41      H       3.2040244000    -0.1203801000     3.8273850000
   42      C       3.5554349000     1.5623503000     2.5389226000
   43      H       2.8532031000     2.1218760000     3.1805457000
   44      H       4.5690596000     1.8085741000     2.8963998000
   45      C       3.4689860000     2.1920522000     1.1250683000
   46      H       3.8470652000     3.2162809000     1.2688817000
   47      C      -4.3521273000    -1.1581549000     1.2926500000
   48      H      -4.7141457000    -1.6041029000     0.3495547000
   49      H      -5.2287312000    -1.0913533000     1.9613300000
   50      C      -3.3457743000    -2.1145816000     1.9393058000
   51      H      -3.7916302000    -3.1068915000     2.0890086000
   52      H      -3.0141030000    -1.7408409000     2.9183656000
   53      C      -3.7817968000     0.2304209000     1.0101556000
   54      H      -2.8652478000     0.1200228000     0.4115054000
   55      H      -3.4720710000     0.7021956000     1.9595284000
   56      C      -4.7526161000     1.1422257000     0.2616434000
   57      H      -5.1350145000     0.6183194000    -0.6291987000
   58      H      -5.6152901000     1.4029940000     0.8953623000
   59      O      -2.4539076000     3.4933037000     1.2436653000
   60      O       3.9796063000     1.1263840000    -0.9965059000
   61      O      -0.5640079000    -0.3003728000    -1.3901905000
   62      Fe      0.3245055000    -1.4013242000     0.0640597000
   63      O      -1.1445810000    -1.3551078000     1.3906814000
   64      O      -0.8557145000    -3.0106973000    -0.5422092000
   65      O       1.5598810000    -2.3048871000     1.3428435000
   66      O       1.9144397000    -2.0006871000    -1.1602503000
 ----------------------------------------------------------------
 Nuclear Repulsion Energy =        5403.83137302 hartrees
 There are      152 alpha and      147 beta electrons
 Requested basis set is non-standard
 There are 488 shells and 1148 basis functions

 Total QAlloc Memory Limit   8000 MB
 Mega-Array Size       188 MB
 MEM_STATIC part       192 MB

 Using C-PCM dielectric factor f(eps) = (eps-1)/eps = 0.987243
No default van der Waals radius is available for Z = 26
	Found R = 2.4400 A in the $van_der_waals section
 Discretize the solute cavity surface with Lebedev spheres
	Using 110 Lebedev grid points for each H atom
	Using 194 Lebedev grid points for other atoms
	Atomic van der Waals radii (Bondi set) will be scaled by 1.20
 Using smooth SwiG surface discretization
 Remove points where switching function is < 1.0e-08
 Keep 3861 surface tesserae and discard 6507 interior tesserae
 Molecular Surface Area = 491.178 Angst**2

 A cutoff of  1.0D-12 yielded 105774 shell pairs
 There are    558846 function pairs (    637016 Cartesian)
 Smallest overlap matrix eigenvalue = 1.05E-06

 Scale SEOQF with 1.000000e-02/1.000000e-01/1.000000e-01

 Standard Electronic Orientation quadrupole field applied
 Nucleus-field energy     =     0.0000000390 hartrees
 ================ Generating on-the-fly SAD Guess ================
 Attempting to make child job directory: /data/scratch/C_FeABstar_enol_ccL_2sextet_SkS_camb3lyp_augccpVDZ_pcmH2O_tddft10020240216161410//Frg1/
 Attempting to make child job directory: /data/scratch/C_FeABstar_enol_ccL_2sextet_SkS_camb3lyp_augccpVDZ_pcmH2O_tddft10020240216161410//Frg2/
 Attempting to make child job directory: /data/scratch/C_FeABstar_enol_ccL_2sextet_SkS_camb3lyp_augccpVDZ_pcmH2O_tddft10020240216161410//Frg3/
 Attempting to make child job directory: /data/scratch/C_FeABstar_enol_ccL_2sextet_SkS_camb3lyp_augccpVDZ_pcmH2O_tddft10020240216161410//Frg4/
 Attempting to make child job directory: /data/scratch/C_FeABstar_enol_ccL_2sextet_SkS_camb3lyp_augccpVDZ_pcmH2O_tddft10020240216161410//Frg5/
 Creating input file /data/scratch/C_FeABstar_enol_ccL_2sextet_SkS_camb3lyp_augccpVDZ_pcmH2O_tddft10020240216161410/Frg1.input
 using default PutDataFrgm: nothing
 calling putenv with: QCSCRATCH=/data/scratch/C_FeABstar_enol_ccL_2sextet_SkS_camb3lyp_augccpVDZ_pcmH2O_tddft10020240216161410/ 
 Spawning Job For Fragment 0
 Done Job For Fragment 0
 calling putenv with: QCSCRATCH=/data/scratch 
 calling putenv with: QCTHREADS=20 
 Creating input file /data/scratch/C_FeABstar_enol_ccL_2sextet_SkS_camb3lyp_augccpVDZ_pcmH2O_tddft10020240216161410/Frg2.input
 using default PutDataFrgm: nothing
 calling putenv with: QCSCRATCH=/data/scratch/C_FeABstar_enol_ccL_2sextet_SkS_camb3lyp_augccpVDZ_pcmH2O_tddft10020240216161410/ 
 Spawning Job For Fragment 1
 Done Job For Fragment 1
 calling putenv with: QCSCRATCH=/data/scratch 
 calling putenv with: QCTHREADS=20 
 Creating input file /data/scratch/C_FeABstar_enol_ccL_2sextet_SkS_camb3lyp_augccpVDZ_pcmH2O_tddft10020240216161410/Frg3.input
 using default PutDataFrgm: nothing
 calling putenv with: QCSCRATCH=/data/scratch/C_FeABstar_enol_ccL_2sextet_SkS_camb3lyp_augccpVDZ_pcmH2O_tddft10020240216161410/ 
 Spawning Job For Fragment 2
 Done Job For Fragment 2
 calling putenv with: QCSCRATCH=/data/scratch 
 calling putenv with: QCTHREADS=20 
 Creating input file /data/scratch/C_FeABstar_enol_ccL_2sextet_SkS_camb3lyp_augccpVDZ_pcmH2O_tddft10020240216161410/Frg4.input
 using default PutDataFrgm: nothing
 calling putenv with: QCSCRATCH=/data/scratch/C_FeABstar_enol_ccL_2sextet_SkS_camb3lyp_augccpVDZ_pcmH2O_tddft10020240216161410/ 
 Spawning Job For Fragment 3
 Done Job For Fragment 3
 calling putenv with: QCSCRATCH=/data/scratch 
 calling putenv with: QCTHREADS=20 
 Creating input file /data/scratch/C_FeABstar_enol_ccL_2sextet_SkS_camb3lyp_augccpVDZ_pcmH2O_tddft10020240216161410/Frg5.input
 using default PutDataFrgm: nothing
 calling putenv with: QCSCRATCH=/data/scratch/C_FeABstar_enol_ccL_2sextet_SkS_camb3lyp_augccpVDZ_pcmH2O_tddft10020240216161410/ 
 Spawning Job For Fragment 4
 Done Job For Fragment 4
 calling putenv with: QCSCRATCH=/data/scratch 
 calling putenv with: QCTHREADS=20 
 Time for running child jobs:  CPU 0.02 s  wall 101.34 s
 ============= Method Specific SAD Guess Constructed =============
 Guess from on-the-fly superposition of atomic densities
 Warning: Energy on first SCF cycle will be non-variational

 -----------------------------------------------------------------------
  General SCF calculation program by
  Eric Jon Sundstrom, Paul Horn, Yuezhi Mao, Dmitri Zuev, Alec White,
  David Stuck, Shaama M.S., Shane Yost, Joonho Lee, David Small,
  Daniel Levine, Susi Lehtola, Hugh Burton, Evgeny Epifanovsky,
  Bang C. Huynh
 -----------------------------------------------------------------------
 Exchange:     0.1900 Hartree-Fock + 0.3500 B88 + 0.4600 muB88 + LR-HF
 Correlation:  0.1900 VWN5 + 0.8100 LYP
 Using SG-1 standard quadrature grid
 using 20 threads for integral computing
 -------------------------------------------------------
 OpenMP Integral computing Module                
 Release: version 1.0, May 2013, Q-Chem Inc. Pittsburgh 
 -------------------------------------------------------
 C-PCM solvent model [f = (eps-1)/eps], solve by matrix inversion
 A unrestricted SCF calculation will be
 performed using DIIS
 SCF converges when DIIS error is below 1.0e-08
 ---------------------------------------
  Cycle       Energy         DIIS error
 ---------------------------------------
    1   -3147.5676988373      1.05e-02  
    2   -3126.8090354117      1.34e-03  
    3   -3126.3429130386      1.84e-03  
    4   -3127.8374794413      3.99e-04  
    5   -3127.8890225546      2.17e-04  
    6   -3127.9082248435      1.02e-04  
    7   -3127.9140843946      2.75e-05  
    8   -3127.9149145289      1.76e-05  
    9   -3127.9152631163      7.01e-06  
   10   -3127.9153738325      3.52e-06  
   11   -3127.9154126589      2.02e-06  
   12   -3127.9154308823      1.16e-06  
   13   -3127.9154356767      5.97e-07  
   14   -3127.9154367988      3.09e-07  
   15   -3127.9154369698      1.34e-07  
   16   -3127.9154370074      6.34e-08  
   17   -3127.9154370133      3.72e-08  
   18   -3127.9154370147      1.92e-08  
   19   -3127.9154370155      1.02e-08  
   20   -3127.9154370174      5.78e-09  Convergence criterion met
 ---------------------------------------
 SCF time:   CPU 334050.82s  wall 19858.00s 
<S^2> =          8.757978251

************** Final PCM Free Energy Summary **************
 G_electrostatic  =      -0.29649153 hartree =    -186.05124075 kcal/mol
 G_cavitation     =       0.00000000 hartree =       0.00000000 kcal/mol
 G_dispersion     =       0.00000000 hartree =       0.00000000 kcal/mol
 G_repulsion      =       0.00000000 hartree =       0.00000000 kcal/mol
 --------------------------------------------------
 Non-electrostatic Free Energy =       0.00000000 hartree =       0.00000000 kcal/mol
 Total                         =      -0.29649153 hartree =    -186.05124075 kcal/mol
 --------------------------------------------------
 SCF Energy (H0 + V/2)                       =   -3127.91543702 
 Solute Internal Energy (H0)                 =   -3127.61894549 
 Total Free Energy (H0 + V/2 + non-elec)     =   -3127.91543702 hartree
                                             = -1962796.56121555 kcal/mol
***********************************************************

 SCF   energy in the final basis set =    -3127.9154370174
 Total energy in the final basis set =    -3127.9154370174
 

 CIS/TDDFT memory preview:
 --------------------------
	NOV = NOa*NVa + NOb*NVb = 298539
	NRoots = 100, max iter = 30, max vectors = 3000
	Size of each subspace vector: 2.28 Mb
	Davidson algorithm may add up to 2 x NOV x NRoots (= 455.5 Mb) per iteration
	Max memory = 13666.0 Mb (worst case scenario)
	Currently available memory = 8000.0 Mb

	In case of problems:
	(a) increase memory (MEM_TOTAL = 13667 can hold 3000 subspace vectors), or
	(b) request fewer states (CIS_N_ROOTS = 58 will fit in current MEM_TOTAL), or
	(c) reduce MAX_CIS_SUBSPACE (= 1756 will fit in current MEM_TOTAL).
	Reducing MAX_CIS_SUBSPACE may hamper convergence.

 Direct TDDFT/TDA calculation will be performed
 Exchange:     0.1900 Hartree-Fock + 0.3500 B88 + 0.4600 muB88 + LR-HF
 Correlation:  0.1900 VWN5 + 0.8100 LYP
 Using SG-1 standard quadrature grid
 Adding PCM contribution to the XC response (LR-PCM)
 CIS energy converged when residual is below 10e- 6
 ---------------------------------------------------
 Iter    Rts Conv    Rts Left    Ttl Dev     Max Dev
 ---------------------------------------------------
   1         0         100      0.006330    0.000245
   2         0         100      0.004989    0.000173
   3         0         100      0.005097    0.000135
   4         0         100      0.004031    0.000118
   5         8          92      0.002337    0.000113
   6        19          81      0.001256    0.000074
   7        29          71      0.000571    0.000051
   8        53          47      0.000243    0.000035
   9        73          27      0.000113    0.000014
  10        93           7      0.000043    0.000006
  11        96           4      0.000024    0.000002
  12       100           0      0.000020    0.000001    Roots Converged
 ---------------------------------------------------
 
 ---------------------------------------------------
         TDDFT/TDA Excitation Energies              
 ---------------------------------------------------

 Excited state   1: excitation energy (eV) =    2.2916
 Total energy for state  1:                 -3127.83122150 au
    <S**2>     :  8.7951
    Trans. Mom.:  0.0839 X  -0.0155 Y  -0.0086 Z
    Strength   :     0.0004128723
    D(  145) --> S(    1) amplitude = -0.2741 beta
    D(  146) --> S(    1) amplitude =  0.8742 beta
    D(  147) --> S(    1) amplitude = -0.3058 beta

 Excited state   2: excitation energy (eV) =    2.3667
 Total energy for state  2:                 -3127.82846103 au
    <S**2>     :  8.8017
    Trans. Mom.: -0.2404 X  -0.0489 Y   0.0124 Z
    Strength   :     0.0034998343
    D(  145) --> S(    1) amplitude =  0.7437 beta
    D(  145) --> S(    3) amplitude =  0.2183 beta
    D(  147) --> S(    1) amplitude = -0.5610 beta

 Excited state   3: excitation energy (eV) =    2.5439
 Total energy for state  3:                 -3127.82195131 au
    <S**2>     :  8.7820
    Trans. Mom.:  0.9403 X  -0.0990 Y  -0.0293 Z
    Strength   :     0.0557694720
    D(  145) --> S(    3) amplitude =  0.3185 beta
    D(  146) --> S(    2) amplitude =  0.7010 beta
    D(  146) --> S(    3) amplitude =  0.2879 beta
    D(  147) --> S(    2) amplitude = -0.3503 beta
    D(  147) --> S(    3) amplitude = -0.3519 beta

 Excited state   4: excitation energy (eV) =    2.5587
 Total energy for state  4:                 -3127.82140531 au
    <S**2>     :  8.7919
    Trans. Mom.: -0.3262 X   0.0881 Y  -0.0452 Z
    Strength   :     0.0072858318
    D(  145) --> S(    3) amplitude = -0.3715 beta
    D(  146) --> S(    2) amplitude = -0.2048 beta
    D(  146) --> S(    3) amplitude =  0.8349 beta
    D(  147) --> S(    2) amplitude =  0.1545 beta
    D(  147) --> S(    3) amplitude = -0.2210 beta

 Excited state   5: excitation energy (eV) =    2.5973
 Total energy for state  5:                 -3127.81998649 au
    <S**2>     :  8.8042
    Trans. Mom.: -0.1222 X  -0.1055 Y   0.0070 Z
    Strength   :     0.0016617395
    D(  145) --> S(    2) amplitude =  0.7413 beta
    D(  145) --> S(    3) amplitude = -0.2953 beta
    D(  147) --> S(    2) amplitude = -0.5406 beta
    D(  147) --> S(    3) amplitude =  0.1620 beta

 Excited state   6: excitation energy (eV) =    2.8359
 Total energy for state  6:                 -3127.81121778 au
    <S**2>     :  8.8092
    Trans. Mom.: -0.2494 X  -0.6193 Y   0.2731 Z
    Strength   :     0.0361533923
    D(  145) --> S(    2) amplitude = -0.3601 beta
    D(  145) --> S(    3) amplitude = -0.4668 beta
    D(  146) --> S(    2) amplitude =  0.4054 beta
    D(  147) --> S(    1) amplitude = -0.2430 beta
    D(  147) --> S(    3) amplitude =  0.5526 beta

 Excited state   7: excitation energy (eV) =    3.0497
 Total energy for state  7:                 -3127.80336255 au
    <S**2>     :  9.3360
    Trans. Mom.:  0.1836 X   0.0548 Y   0.1711 Z
    Strength   :     0.0049309891
    S(    5) --> V(    2) amplitude = -0.1540 alpha
    D(  142) --> S(    1) amplitude = -0.2100 beta
    D(  143) --> S(    1) amplitude = -0.1856 beta
    D(  144) --> S(    1) amplitude =  0.2415 beta
    D(  145) --> S(    1) amplitude =  0.4407 beta
    D(  146) --> S(    1) amplitude =  0.3008 beta
    D(  147) --> S(    1) amplitude =  0.5974 beta
    D(  147) --> V(    5) amplitude =  0.1782 beta

 Excited state   8: excitation energy (eV) =    3.3551
 Total energy for state  8:                 -3127.79213821 au
    <S**2>     :  8.7944
    Trans. Mom.:  0.0495 X   0.0546 Y  -0.0443 Z
    Strength   :     0.0006082621
    D(  142) --> S(    2) amplitude = -0.2206 beta
    D(  143) --> S(    2) amplitude = -0.1936 beta
    D(  144) --> S(    2) amplitude =  0.2568 beta
    D(  145) --> S(    2) amplitude =  0.4287 beta
    D(  146) --> S(    2) amplitude =  0.3148 beta
    D(  147) --> S(    2) amplitude =  0.6526 beta
    D(  147) --> S(    3) amplitude =  0.1807 beta

 Excited state   9: excitation energy (eV) =    3.4567
 Total energy for state  9:                 -3127.78840556 au
    <S**2>     :  8.9018
    Trans. Mom.:  0.1391 X  -0.2373 Y   0.1176 Z
    Strength   :     0.0075787353
    D(  142) --> S(    3) amplitude = -0.1926 beta
    D(  143) --> S(    3) amplitude = -0.1665 beta
    D(  144) --> S(    3) amplitude =  0.2350 beta
    D(  145) --> S(    3) amplitude =  0.4703 beta
    D(  145) --> S(    4) amplitude =  0.1890 beta
    D(  146) --> S(    2) amplitude = -0.1739 beta
    D(  146) --> S(    3) amplitude =  0.2956 beta
    D(  147) --> S(    2) amplitude = -0.1694 beta
    D(  147) --> S(    3) amplitude =  0.5500 beta

 Excited state  10: excitation energy (eV) =    3.6065
 Total energy for state 10:                 -3127.78289883 au
    <S**2>     :  8.9311
    Trans. Mom.: -0.1913 X  -0.0635 Y  -0.0463 Z
    Strength   :     0.0037779409
    D(  145) --> S(    4) amplitude =  0.1555 beta
    D(  146) --> S(    4) amplitude =  0.6685 beta
    D(  146) --> S(    5) amplitude = -0.3350 beta
    D(  146) --> V(    1) amplitude =  0.1822 beta
    D(  147) --> S(    4) amplitude = -0.4798 beta

 Excited state  11: excitation energy (eV) =    3.6337
 Total energy for state 11:                 -3127.78189998 au
    <S**2>     :  8.8527
    Trans. Mom.: -0.1575 X  -0.0233 Y   0.0325 Z
    Strength   :     0.0023513193
    D(  145) --> S(    4) amplitude =  0.7751 beta
    D(  146) --> S(    4) amplitude = -0.3066 beta
    D(  146) --> S(    5) amplitude =  0.1751 beta
    D(  147) --> S(    4) amplitude = -0.3619 beta

 Excited state  12: excitation energy (eV) =    3.7054
 Total energy for state 12:                 -3127.77926474 au
    <S**2>     :  9.8779
    Trans. Mom.:  0.0989 X   0.1758 Y   0.0810 Z
    Strength   :     0.0042901269
    S(    5) --> V(    1) amplitude = -0.3063 alpha
    S(    5) --> V(    2) amplitude =  0.3484 alpha
    S(    5) --> V(    3) amplitude = -0.1762 alpha
    S(    5) --> V(    5) amplitude = -0.2640 alpha
    D(  146) --> S(    4) amplitude =  0.1795 beta
    D(  147) --> S(    1) amplitude =  0.2157 beta
    D(  147) --> S(    3) amplitude = -0.1515 beta
    D(  147) --> S(    5) amplitude = -0.1986 beta
    D(  147) --> V(    5) amplitude = -0.3238 beta

 Excited state  13: excitation energy (eV) =    3.7659
 Total energy for state 13:                 -3127.77704289 au
    <S**2>     :  8.8364
    Trans. Mom.: -0.2259 X  -0.0231 Y  -0.0154 Z
    Strength   :     0.0047810810
    D(  138) --> S(    1) amplitude = -0.1588 beta
    D(  145) --> S(    5) amplitude = -0.2418 beta
    D(  146) --> S(    4) amplitude =  0.4163 beta
    D(  146) --> S(    5) amplitude =  0.6508 beta
    D(  146) --> V(    1) amplitude = -0.2660 beta
    D(  147) --> S(    4) amplitude = -0.1567 beta

 Excited state  14: excitation energy (eV) =    3.7967
 Total energy for state 14:                 -3127.77591130 au
    <S**2>     :  8.8392
    Trans. Mom.: -0.1000 X   0.0442 Y  -0.0533 Z
    Strength   :     0.0013754721
    D(  136) --> S(    1) amplitude =  0.5329 beta
    D(  138) --> S(    1) amplitude =  0.7159 beta

 Excited state  15: excitation energy (eV) =    3.9274
 Total energy for state 15:                 -3127.77110845 au
    <S**2>     :  8.8005
    Trans. Mom.: -0.0372 X  -0.0315 Y  -0.0893 Z
    Strength   :     0.0009959935
    D(  136) --> S(    2) amplitude =  0.5578 beta
    D(  138) --> S(    2) amplitude =  0.7075 beta

 Excited state  16: excitation energy (eV) =    4.0282
 Total energy for state 16:                 -3127.76740379 au
    <S**2>     :  8.7880
    Trans. Mom.:  0.0363 X  -0.1727 Y   0.0482 Z
    Strength   :     0.0033028097
    D(  136) --> S(    3) amplitude = -0.3155 beta
    D(  138) --> S(    3) amplitude = -0.4198 beta
    D(  145) --> S(    5) amplitude =  0.5235 beta
    D(  145) --> V(    1) amplitude = -0.2433 beta
    D(  147) --> S(    5) amplitude = -0.4500 beta
    D(  147) --> V(    1) amplitude =  0.1890 beta

 Excited state  17: excitation energy (eV) =    4.0335
 Total energy for state 17:                 -3127.76720750 au
    <S**2>     :  8.7930
    Trans. Mom.:  0.1037 X   0.0653 Y  -0.0338 Z
    Strength   :     0.0015963198
    D(  136) --> S(    3) amplitude =  0.4406 beta
    D(  138) --> S(    3) amplitude =  0.5920 beta
    D(  145) --> S(    5) amplitude =  0.3910 beta
    D(  145) --> V(    1) amplitude = -0.1734 beta
    D(  147) --> S(    5) amplitude = -0.3092 beta
    D(  147) --> V(    1) amplitude =  0.1523 beta

 Excited state  18: excitation energy (eV) =    4.2440
 Total energy for state 18:                 -3127.75947312 au
    <S**2>     :  9.9119
    Trans. Mom.: -0.0452 X  -0.0469 Y  -0.0129 Z
    Strength   :     0.0004578994
    S(    3) --> V(   16) amplitude = -0.3470 alpha
    S(    3) --> V(   18) amplitude = -0.2824 alpha
    D(  132) --> S(    2) amplitude = -0.2517 beta
    D(  134) --> S(    2) amplitude =  0.4233 beta
    D(  145) --> V(   17) amplitude = -0.1546 beta
    D(  145) --> V(   18) amplitude =  0.2746 beta
    D(  147) --> V(   18) amplitude = -0.1817 beta

 Excited state  19: excitation energy (eV) =    4.2633
 Total energy for state 19:                 -3127.75876529 au
    <S**2>     :  9.4525
    Trans. Mom.:  0.0471 X   0.0342 Y   0.0517 Z
    Strength   :     0.0006329782
    S(    3) --> V(   16) amplitude = -0.2599 alpha
    S(    3) --> V(   18) amplitude = -0.2196 alpha
    D(  127) --> S(    2) amplitude = -0.1922 beta
    D(  132) --> S(    2) amplitude =  0.2722 beta
    D(  133) --> S(    2) amplitude = -0.1973 beta
    D(  134) --> S(    2) amplitude = -0.5514 beta
    D(  145) --> V(   18) amplitude =  0.2044 beta

 Excited state  20: excitation energy (eV) =    4.3414
 Total energy for state 20:                 -3127.75589191 au
    <S**2>     : 10.0729
    Trans. Mom.: -0.1031 X   0.0009 Y   0.0149 Z
    Strength   :     0.0011545764
    S(    4) --> V(   18) amplitude = -0.1946 alpha
    S(    4) --> V(   19) amplitude = -0.3778 alpha
    S(    4) --> V(   20) amplitude =  0.2630 alpha
    D(  134) --> S(    1) amplitude =  0.3077 beta
    D(  146) --> V(   19) amplitude =  0.1621 beta
    D(  146) --> V(   22) amplitude =  0.3041 beta

 Excited state  21: excitation energy (eV) =    4.3550
 Total energy for state 21:                 -3127.75539506 au
    <S**2>     :  9.1027
    Trans. Mom.: -0.2673 X   0.0497 Y  -0.1061 Z
    Strength   :     0.0090884492
    S(    4) --> V(   19) amplitude =  0.1613 alpha
    D(  127) --> S(    1) amplitude =  0.2053 beta
    D(  132) --> S(    1) amplitude = -0.1679 beta
    D(  133) --> S(    1) amplitude =  0.2052 beta
    D(  134) --> S(    1) amplitude =  0.7135 beta
    D(  135) --> S(    1) amplitude = -0.1830 beta
    D(  146) --> V(   22) amplitude = -0.1649 beta

 Excited state  22: excitation energy (eV) =    4.3824
 Total energy for state 22:                 -3127.75438550 au
    <S**2>     :  8.9190
    Trans. Mom.:  0.1557 X   0.2960 Y   0.0797 Z
    Strength   :     0.0126928782
    D(  124) --> S(    1) amplitude = -0.1545 beta
    D(  127) --> S(    1) amplitude =  0.1512 beta
    D(  130) --> S(    1) amplitude = -0.1629 beta
    D(  132) --> S(    1) amplitude = -0.6336 beta
    D(  132) --> S(    3) amplitude =  0.1831 beta
    D(  135) --> S(    1) amplitude =  0.2778 beta
    D(  142) --> S(    1) amplitude =  0.2015 beta
    D(  143) --> S(    1) amplitude =  0.2252 beta
    D(  144) --> S(    1) amplitude = -0.2284 beta
    D(  145) --> S(    1) amplitude =  0.1703 beta
    D(  147) --> S(    1) amplitude =  0.1704 beta

 Excited state  23: excitation energy (eV) =    4.4247
 Total energy for state 23:                 -3127.75283227 au
    <S**2>     :  8.9879
    Trans. Mom.:  0.2593 X   0.2986 Y  -0.0349 Z
    Strength   :     0.0170850959
    D(  130) --> S(    1) amplitude =  0.1517 beta
    D(  132) --> S(    1) amplitude =  0.3912 beta
    D(  133) --> S(    1) amplitude =  0.2778 beta
    D(  134) --> S(    1) amplitude =  0.2212 beta
    D(  135) --> S(    1) amplitude =  0.2621 beta
    D(  142) --> S(    1) amplitude =  0.3331 beta
    D(  143) --> S(    1) amplitude =  0.3592 beta
    D(  144) --> S(    1) amplitude = -0.3214 beta
    D(  145) --> S(    1) amplitude =  0.1567 beta
    D(  146) --> S(    1) amplitude =  0.1857 beta
    D(  147) --> S(    1) amplitude =  0.1845 beta

 Excited state  24: excitation energy (eV) =    4.5611
 Total energy for state 24:                 -3127.74781899 au
    <S**2>     :  8.7878
    Trans. Mom.:  0.1457 X   0.0360 Y  -0.0375 Z
    Strength   :     0.0026739215
    D(  124) --> S(    3) amplitude =  0.1951 beta
    D(  128) --> S(    3) amplitude = -0.1783 beta
    D(  129) --> S(    3) amplitude =  0.1623 beta
    D(  130) --> S(    3) amplitude =  0.1691 beta
    D(  132) --> S(    3) amplitude =  0.3755 beta
    D(  133) --> S(    3) amplitude =  0.3099 beta
    D(  134) --> S(    3) amplitude =  0.6446 beta
    D(  135) --> S(    3) amplitude = -0.2137 beta

 Excited state  25: excitation energy (eV) =    4.5753
 Total energy for state 25:                 -3127.74729659 au
    <S**2>     :  8.7810
    Trans. Mom.: -0.1838 X  -0.0699 Y   0.0965 Z
    Strength   :     0.0053770311
    D(  125) --> S(    3) amplitude = -0.1977 beta
    D(  127) --> S(    3) amplitude =  0.2676 beta
    D(  131) --> S(    3) amplitude = -0.1543 beta
    D(  132) --> S(    1) amplitude = -0.1534 beta
    D(  132) --> S(    3) amplitude = -0.5950 beta
    D(  134) --> S(    3) amplitude =  0.4578 beta

 Excited state  26: excitation energy (eV) =    4.5812
 Total energy for state 26:                 -3127.74707943 au
    <S**2>     :  8.7782
    Trans. Mom.:  0.0784 X   0.0233 Y  -0.0800 Z
    Strength   :     0.0014698044
    D(  132) --> S(    3) amplitude =  0.2001 beta
    D(  142) --> S(    4) amplitude = -0.1939 beta
    D(  143) --> S(    4) amplitude = -0.1711 beta
    D(  144) --> S(    4) amplitude =  0.2237 beta
    D(  145) --> S(    4) amplitude =  0.3426 beta
    D(  145) --> S(    5) amplitude =  0.1858 beta
    D(  146) --> S(    4) amplitude =  0.2675 beta
    D(  147) --> S(    4) amplitude =  0.5900 beta
    D(  147) --> S(    5) amplitude =  0.2204 beta

 Excited state  27: excitation energy (eV) =    4.6298
 Total energy for state 27:                 -3127.74529330 au
    <S**2>     :  8.7881
    Trans. Mom.: -0.0533 X  -0.0186 Y   0.0082 Z
    Strength   :     0.0003686900
    D(  132) --> S(    2) amplitude = -0.2698 beta
    D(  135) --> S(    2) amplitude =  0.4194 beta
    D(  142) --> S(    2) amplitude =  0.3658 beta
    D(  143) --> S(    2) amplitude =  0.4024 beta
    D(  144) --> S(    2) amplitude = -0.3620 beta
    D(  145) --> S(    2) amplitude =  0.2242 beta
    D(  146) --> S(    2) amplitude =  0.2083 beta
    D(  147) --> S(    2) amplitude =  0.2362 beta
    D(  147) --> S(    4) amplitude = -0.1766 beta

 Excited state  28: excitation energy (eV) =    4.7020
 Total energy for state 28:                 -3127.74264325 au
    <S**2>     :  8.8059
    Trans. Mom.:  0.2347 X   0.2017 Y   0.1776 Z
    Strength   :     0.0146673726
    D(  142) --> S(    5) amplitude = -0.1557 beta
    D(  143) --> S(    3) amplitude = -0.1583 beta
    D(  144) --> S(    5) amplitude =  0.1857 beta
    D(  145) --> S(    5) amplitude =  0.3435 beta
    D(  146) --> S(    5) amplitude =  0.2433 beta
    D(  147) --> S(    4) amplitude = -0.2708 beta
    D(  147) --> S(    5) amplitude =  0.4978 beta
    D(  147) --> V(    1) amplitude = -0.2063 beta

 Excited state  29: excitation energy (eV) =    4.7248
 Total energy for state 29:                 -3127.74180492 au
    <S**2>     :  8.7906
    Trans. Mom.: -0.0157 X   0.0912 Y  -0.0324 Z
    Strength   :     0.0011130145
    D(  124) --> S(    2) amplitude = -0.1750 beta
    D(  132) --> S(    2) amplitude = -0.7046 beta
    D(  133) --> S(    2) amplitude = -0.3226 beta
    D(  134) --> S(    2) amplitude = -0.3301 beta
    D(  142) --> S(    2) amplitude = -0.1829 beta
    D(  143) --> S(    2) amplitude = -0.1985 beta

 Excited state  30: excitation energy (eV) =    4.7436
 Total energy for state 30:                 -3127.74111228 au
    <S**2>     :  8.8467
    Trans. Mom.: -0.0527 X   0.0819 Y  -0.0657 Z
    Strength   :     0.0016046921
    D(  133) --> S(    3) amplitude =  0.1845 beta
    D(  135) --> S(    3) amplitude =  0.3622 beta
    D(  142) --> S(    3) amplitude =  0.3865 beta
    D(  143) --> S(    3) amplitude =  0.4276 beta
    D(  144) --> S(    3) amplitude = -0.3496 beta
    D(  145) --> S(    3) amplitude =  0.1857 beta
    D(  146) --> S(    3) amplitude =  0.2071 beta
    D(  147) --> S(    3) amplitude =  0.2127 beta
    D(  147) --> S(    5) amplitude =  0.1707 beta

 Excited state  31: excitation energy (eV) =    4.8079
 Total energy for state 31:                 -3127.73874903 au
    <S**2>     :  8.8692
    Trans. Mom.:  0.0449 X  -0.0432 Y  -0.0061 Z
    Strength   :     0.0004613747
    D(  125) --> S(    1) amplitude = -0.2212 beta
    D(  128) --> S(    1) amplitude =  0.2373 beta
    D(  130) --> S(    1) amplitude = -0.3767 beta
    D(  131) --> S(    1) amplitude =  0.1692 beta
    D(  133) --> S(    1) amplitude =  0.5068 beta
    D(  142) --> S(    1) amplitude =  0.1959 beta
    D(  143) --> S(    1) amplitude =  0.2650 beta
    D(  144) --> S(    1) amplitude =  0.3554 beta

 Excited state  32: excitation energy (eV) =    4.8447
 Total energy for state 32:                 -3127.73739919 au
    <S**2>     :  8.8150
    Trans. Mom.: -0.0087 X   0.0581 Y  -0.0647 Z
    Strength   :     0.0009066186
    D(  129) --> S(    1) amplitude = -0.6247 beta
    D(  130) --> S(    1) amplitude = -0.3470 beta
    D(  131) --> S(    1) amplitude = -0.2008 beta
    D(  132) --> S(    1) amplitude =  0.2927 beta
    D(  133) --> S(    1) amplitude = -0.2628 beta
    D(  134) --> S(    1) amplitude =  0.2884 beta

 Excited state  33: excitation energy (eV) =    4.9212
 Total energy for state 33:                 -3127.73458716 au
    <S**2>     :  9.0397
    Trans. Mom.:  0.2142 X   0.0270 Y   0.0266 Z
    Strength   :     0.0057074885
    D(  133) --> S(    1) amplitude = -0.3019 beta
    D(  133) --> S(    3) amplitude = -0.1653 beta
    D(  142) --> S(    1) amplitude =  0.3104 beta
    D(  143) --> S(    1) amplitude =  0.4053 beta
    D(  144) --> S(    1) amplitude =  0.5719 beta

 Excited state  34: excitation energy (eV) =    4.9318
 Total energy for state 34:                 -3127.73419490 au
    <S**2>     :  9.7013
    Trans. Mom.:  0.0687 X   0.0905 Y   0.0305 Z
    Strength   :     0.0016740934
    D(  139) --> V(    2) amplitude = -0.1605 alpha
    D(  145) --> V(    1) amplitude =  0.2012 alpha
    D(  145) --> V(    2) amplitude = -0.2275 alpha
    D(  145) --> V(    5) amplitude =  0.1720 alpha
    D(  146) --> V(    1) amplitude = -0.3052 alpha
    D(  146) --> V(    2) amplitude =  0.3442 alpha
    D(  146) --> V(    3) amplitude = -0.1755 alpha
    D(  146) --> V(    5) amplitude = -0.2574 alpha
    D(  133) --> S(    1) amplitude = -0.2137 beta

 Excited state  35: excitation energy (eV) =    4.9705
 Total energy for state 35:                 -3127.73277370 au
    <S**2>     :  8.8317
    Trans. Mom.:  0.1198 X  -0.0374 Y   0.0094 Z
    Strength   :     0.0019283614
    D(  128) --> S(    2) amplitude =  0.2409 beta
    D(  129) --> S(    2) amplitude = -0.6099 beta
    D(  130) --> S(    2) amplitude = -0.5010 beta
    D(  131) --> S(    2) amplitude = -0.1697 beta
    D(  134) --> S(    2) amplitude =  0.2710 beta

 Excited state  36: excitation energy (eV) =    5.0079
 Total energy for state 36:                 -3127.73140188 au
    <S**2>     :  8.8114
    Trans. Mom.: -0.6913 X  -0.2509 Y  -0.4630 Z
    Strength   :     0.0926572766
    S(    5) --> V(    1) amplitude =  0.1714 alpha
    S(    5) --> V(    2) amplitude = -0.1648 alpha
    D(  131) --> S(    3) amplitude =  0.1600 beta
    D(  133) --> S(    2) amplitude = -0.3642 beta
    D(  133) --> S(    3) amplitude =  0.3361 beta
    D(  134) --> S(    3) amplitude = -0.2040 beta
    D(  144) --> S(    2) amplitude = -0.1566 beta
    D(  144) --> S(    3) amplitude =  0.1653 beta
    D(  147) --> V(    5) amplitude = -0.2604 beta

 Excited state  37: excitation energy (eV) =    5.0365
 Total energy for state 37:                 -3127.73035085 au
    <S**2>     :  8.8020
    Trans. Mom.: -0.5432 X  -0.4797 Y  -0.3207 Z
    Strength   :     0.0775009750
    S(    5) --> V(    1) amplitude =  0.1584 alpha
    S(    5) --> V(    2) amplitude = -0.1533 alpha
    D(  125) --> S(    2) amplitude = -0.1542 beta
    D(  128) --> S(    2) amplitude =  0.1863 beta
    D(  129) --> S(    3) amplitude =  0.3202 beta
    D(  130) --> S(    2) amplitude = -0.2388 beta
    D(  131) --> S(    2) amplitude =  0.1640 beta
    D(  133) --> S(    2) amplitude =  0.3267 beta
    D(  133) --> S(    3) amplitude =  0.1827 beta
    D(  134) --> S(    2) amplitude = -0.2091 beta
    D(  134) --> S(    3) amplitude = -0.1631 beta
    D(  142) --> S(    2) amplitude =  0.1555 beta
    D(  143) --> S(    2) amplitude =  0.2114 beta
    D(  144) --> S(    2) amplitude =  0.2911 beta
    D(  147) --> V(    5) amplitude = -0.1889 beta

 Excited state  38: excitation energy (eV) =    5.1007
 Total energy for state 38:                 -3127.72799062 au
    <S**2>     :  8.8173
    Trans. Mom.:  0.9578 X   0.2872 Y   0.5204 Z
    Strength   :     0.1587827819
    S(    5) --> V(    1) amplitude = -0.2173 alpha
    S(    5) --> V(    2) amplitude =  0.2037 alpha
    D(  129) --> S(    3) amplitude =  0.3508 beta
    D(  131) --> S(    3) amplitude =  0.1974 beta
    D(  133) --> S(    3) amplitude =  0.3889 beta
    D(  134) --> S(    3) amplitude = -0.1889 beta
    D(  143) --> S(    3) amplitude =  0.1576 beta
    D(  144) --> S(    3) amplitude =  0.1627 beta
    D(  147) --> V(    2) amplitude = -0.1636 beta
    D(  147) --> V(    5) amplitude =  0.2890 beta

 Excited state  39: excitation energy (eV) =    5.1369
 Total energy for state 39:                 -3127.72665959 au
    <S**2>     :  8.8058
    Trans. Mom.:  0.0225 X   0.0662 Y   0.1351 Z
    Strength   :     0.0029126187
    D(  128) --> S(    3) amplitude =  0.1695 beta
    D(  129) --> S(    1) amplitude =  0.1961 beta
    D(  129) --> S(    3) amplitude = -0.4443 beta
    D(  130) --> S(    3) amplitude = -0.3585 beta
    D(  132) --> S(    3) amplitude =  0.1659 beta
    D(  133) --> S(    3) amplitude =  0.1509 beta
    D(  142) --> S(    2) amplitude =  0.2159 beta
    D(  143) --> S(    2) amplitude =  0.2857 beta
    D(  144) --> S(    2) amplitude =  0.4504 beta

 Excited state  40: excitation energy (eV) =    5.1686
 Total energy for state 40:                 -3127.72549572 au
    <S**2>     :  8.8074
    Trans. Mom.:  0.3057 X   0.2094 Y   0.0913 Z
    Strength   :     0.0184387827
    D(  129) --> S(    1) amplitude = -0.1833 beta
    D(  129) --> S(    3) amplitude =  0.2669 beta
    D(  130) --> S(    2) amplitude =  0.1878 beta
    D(  130) --> S(    3) amplitude =  0.1823 beta
    D(  133) --> S(    2) amplitude = -0.3560 beta
    D(  138) --> S(    4) amplitude = -0.1705 beta
    D(  142) --> S(    2) amplitude =  0.2277 beta
    D(  143) --> S(    2) amplitude =  0.2998 beta
    D(  144) --> S(    2) amplitude =  0.4896 beta
    D(  144) --> S(    3) amplitude = -0.1566 beta

 Excited state  41: excitation energy (eV) =    5.1777
 Total energy for state 41:                 -3127.72515911 au
    <S**2>     : 10.5156
    Trans. Mom.:  0.0264 X   0.0776 Y   0.0039 Z
    Strength   :     0.0008549489
    D(  141) --> V(   24) amplitude =  0.1602 alpha
    D(  144) --> V(   23) amplitude =  0.1611 alpha
    D(  144) --> V(   24) amplitude = -0.1935 alpha
    D(  147) --> V(   24) amplitude =  0.1718 alpha
    D(  137) --> V(   24) amplitude = -0.1658 beta
    D(  140) --> V(   23) amplitude = -0.1592 beta
    D(  140) --> V(   24) amplitude =  0.1869 beta
    D(  142) --> S(    1) amplitude =  0.1663 beta
    D(  142) --> V(   24) amplitude =  0.1520 beta

 Excited state  42: excitation energy (eV) =    5.1833
 Total energy for state 42:                 -3127.72495385 au
    <S**2>     :  8.9112
    Trans. Mom.: -0.1969 X  -0.3288 Y  -0.0069 Z
    Strength   :     0.0186603760
    D(  125) --> S(    1) amplitude =  0.2289 beta
    D(  128) --> S(    1) amplitude =  0.3115 beta
    D(  129) --> S(    1) amplitude =  0.4455 beta
    D(  129) --> S(    3) amplitude =  0.2113 beta
    D(  130) --> S(    1) amplitude = -0.3891 beta
    D(  132) --> S(    1) amplitude =  0.1743 beta
    D(  133) --> S(    1) amplitude = -0.2590 beta
    D(  138) --> S(    4) amplitude = -0.1580 beta
    D(  139) --> S(    1) amplitude =  0.1633 beta

 Excited state  43: excitation energy (eV) =    5.2345
 Total energy for state 43:                 -3127.72307315 au
    <S**2>     :  9.5280
    Trans. Mom.: -0.3054 X  -0.1945 Y  -0.0681 Z
    Strength   :     0.0174059849
    S(    2) --> V(    1) amplitude =  0.1692 alpha
    S(    2) --> V(    2) amplitude = -0.1801 alpha
    D(  135) --> V(    5) amplitude =  0.1845 beta
    D(  138) --> S(    4) amplitude = -0.1671 beta
    D(  142) --> S(    3) amplitude =  0.2511 beta
    D(  143) --> S(    3) amplitude =  0.3222 beta
    D(  144) --> S(    1) amplitude =  0.1629 beta
    D(  144) --> S(    3) amplitude =  0.4170 beta

 Excited state  44: excitation energy (eV) =    5.2645
 Total energy for state 44:                 -3127.72197101 au
    <S**2>     :  9.3974
    Trans. Mom.:  0.1075 X   0.0146 Y  -0.0239 Z
    Strength   :     0.0015903334
    S(    2) --> V(    1) amplitude = -0.1505 alpha
    S(    2) --> V(    2) amplitude =  0.1607 alpha
    D(  130) --> S(    3) amplitude =  0.1616 beta
    D(  133) --> S(    3) amplitude = -0.2101 beta
    D(  135) --> V(    5) amplitude = -0.1651 beta
    D(  142) --> S(    3) amplitude =  0.1895 beta
    D(  143) --> S(    3) amplitude =  0.2614 beta
    D(  144) --> S(    1) amplitude = -0.1985 beta
    D(  144) --> S(    3) amplitude =  0.5538 beta

 Excited state  45: excitation energy (eV) =    5.2930
 Total energy for state 45:                 -3127.72092313 au
    <S**2>     :  8.8424
    Trans. Mom.:  0.6014 X   0.5011 Y   0.0359 Z
    Strength   :     0.0796284813
    D(  133) --> S(    2) amplitude = -0.1523 beta
    D(  136) --> S(    4) amplitude =  0.4504 beta
    D(  138) --> S(    4) amplitude =  0.6063 beta
    D(  139) --> S(    1) amplitude =  0.1576 beta

 Excited state  46: excitation energy (eV) =    5.3275
 Total energy for state 46:                 -3127.71965392 au
    <S**2>     :  8.8124
    Trans. Mom.:  0.0748 X   0.1603 Y  -0.0365 Z
    Strength   :     0.0042583857
    D(  125) --> S(    2) amplitude =  0.2587 beta
    D(  127) --> S(    2) amplitude =  0.1618 beta
    D(  128) --> S(    2) amplitude =  0.3184 beta
    D(  129) --> S(    2) amplitude =  0.5359 beta
    D(  130) --> S(    2) amplitude = -0.3536 beta
    D(  130) --> S(    3) amplitude = -0.1962 beta
    D(  133) --> S(    2) amplitude = -0.3149 beta

 Excited state  47: excitation energy (eV) =    5.3583
 Total energy for state 47:                 -3127.71852364 au
    <S**2>     :  9.1420
    Trans. Mom.:  0.0365 X   0.0011 Y   0.0607 Z
    Strength   :     0.0006589542
    D(  137) --> S(    1) amplitude = -0.1986 beta
    D(  140) --> S(    1) amplitude =  0.3343 beta
    D(  141) --> S(    1) amplitude =  0.2944 beta
    D(  142) --> S(    1) amplitude =  0.5920 beta
    D(  143) --> S(    1) amplitude = -0.4795 beta

 Excited state  48: excitation energy (eV) =    5.3823
 Total energy for state 48:                 -3127.71764126 au
    <S**2>     : 10.3262
    Trans. Mom.: -0.0923 X   0.2209 Y  -0.0705 Z
    Strength   :     0.0082110130
    D(  140) --> V(   23) amplitude = -0.1866 alpha
    D(  140) --> V(   24) amplitude =  0.2252 alpha
    D(  136) --> V(   23) amplitude =  0.1627 beta
    D(  136) --> V(   24) amplitude = -0.1946 beta
    D(  138) --> V(   23) amplitude = -0.1602 beta
    D(  138) --> V(   24) amplitude =  0.1806 beta
    D(  139) --> S(    1) amplitude = -0.2299 beta
    D(  141) --> S(    1) amplitude =  0.2163 beta

 Excited state  49: excitation energy (eV) =    5.3957
 Total energy for state 49:                 -3127.71714732 au
    <S**2>     :  8.9583
    Trans. Mom.:  0.0171 X  -0.0042 Y  -0.0760 Z
    Strength   :     0.0008050928
    D(  125) --> S(    3) amplitude = -0.1589 beta
    D(  128) --> S(    3) amplitude = -0.1807 beta
    D(  129) --> S(    3) amplitude = -0.2678 beta
    D(  130) --> S(    3) amplitude =  0.2267 beta
    D(  133) --> S(    3) amplitude =  0.1750 beta
    D(  139) --> S(    1) amplitude =  0.6918 beta
    D(  140) --> S(    1) amplitude =  0.1540 beta

 Excited state  50: excitation energy (eV) =    5.4024
 Total energy for state 50:                 -3127.71690225 au
    <S**2>     :  8.8920
    Trans. Mom.: -0.3947 X  -0.1655 Y  -0.0537 Z
    Strength   :     0.0246260678
    D(  125) --> S(    3) amplitude =  0.2104 beta
    D(  128) --> S(    3) amplitude =  0.2559 beta
    D(  129) --> S(    2) amplitude = -0.1713 beta
    D(  129) --> S(    3) amplitude =  0.3402 beta
    D(  130) --> S(    3) amplitude = -0.3332 beta
    D(  132) --> S(    3) amplitude =  0.2030 beta
    D(  133) --> S(    3) amplitude = -0.2546 beta
    D(  139) --> S(    1) amplitude =  0.4770 beta
    D(  139) --> S(    3) amplitude =  0.1548 beta

 Excited state  51: excitation energy (eV) =    5.4420
 Total energy for state 51:                 -3127.71544796 au
    <S**2>     :  9.0541
    Trans. Mom.: -0.8219 X   0.5334 Y  -0.4698 Z
    Strength   :     0.1574117290
    D(  136) --> S(    5) amplitude =  0.3918 beta
    D(  138) --> S(    5) amplitude =  0.5122 beta
    D(  138) --> V(    1) amplitude = -0.1683 beta
    D(  138) --> V(    5) amplitude =  0.1798 beta
    D(  147) --> V(    5) amplitude = -0.1719 beta

 Excited state  52: excitation energy (eV) =    5.5057
 Total energy for state 52:                 -3127.71310779 au
    <S**2>     : 10.2865
    Trans. Mom.: -0.0092 X  -0.0042 Y   0.0036 Z
    Strength   :     0.0000154304
    S(    5) --> V(    1) amplitude =  0.2678 alpha
    S(    5) --> V(    5) amplitude = -0.2380 alpha
    D(  141) --> S(    1) amplitude =  0.3756 beta
    D(  147) --> S(    5) amplitude =  0.1790 beta
    D(  147) --> V(    1) amplitude =  0.2875 beta
    D(  147) --> V(    2) amplitude = -0.2489 beta

 Excited state  53: excitation energy (eV) =    5.5180
 Total energy for state 53:                 -3127.71265348 au
    <S**2>     :  9.4035
    Trans. Mom.:  0.2141 X   0.0087 Y   0.1358 Z
    Strength   :     0.0086969615
    S(    5) --> V(    1) amplitude = -0.2000 alpha
    D(  136) --> S(    1) amplitude = -0.1731 beta
    D(  138) --> V(    5) amplitude =  0.1836 beta
    D(  139) --> S(    1) amplitude =  0.1831 beta
    D(  141) --> S(    1) amplitude =  0.6318 beta
    D(  142) --> S(    1) amplitude = -0.2226 beta

 Excited state  54: excitation energy (eV) =    5.5509
 Total energy for state 54:                 -3127.71144350 au
    <S**2>     :  9.1702
    Trans. Mom.: -0.2871 X   0.1527 Y  -0.1888 Z
    Strength   :     0.0192282426
    D(  136) --> V(    5) amplitude = -0.2904 beta
    D(  138) --> V(    1) amplitude = -0.1742 beta
    D(  138) --> V(    2) amplitude =  0.2025 beta
    D(  138) --> V(    5) amplitude = -0.4455 beta
    D(  140) --> S(    1) amplitude = -0.2006 beta
    D(  141) --> S(    1) amplitude =  0.4587 beta

 Excited state  55: excitation energy (eV) =    5.5627
 Total energy for state 55:                 -3127.71101129 au
    <S**2>     :  8.7975
    Trans. Mom.: -0.0418 X   0.0204 Y   0.0126 Z
    Strength   :     0.0003166137
    D(  137) --> S(    2) amplitude = -0.2158 beta
    D(  139) --> S(    2) amplitude = -0.1687 beta
    D(  140) --> S(    2) amplitude =  0.3516 beta
    D(  141) --> S(    2) amplitude =  0.3541 beta
    D(  142) --> S(    2) amplitude =  0.6268 beta
    D(  143) --> S(    2) amplitude = -0.5110 beta

 Excited state  56: excitation energy (eV) =    5.5883
 Total energy for state 56:                 -3127.71007118 au
    <S**2>     :  8.8139
    Trans. Mom.:  0.0290 X  -0.0251 Y  -0.0209 Z
    Strength   :     0.0002604639
    D(  137) --> S(    3) amplitude = -0.2183 beta
    D(  140) --> S(    3) amplitude =  0.3697 beta
    D(  141) --> S(    3) amplitude =  0.3520 beta
    D(  142) --> S(    3) amplitude =  0.6229 beta
    D(  143) --> S(    3) amplitude = -0.4969 beta

 Excited state  57: excitation energy (eV) =    5.5907
 Total energy for state 57:                 -3127.70998228 au
    <S**2>     :  8.7977
    Trans. Mom.:  0.0010 X  -0.0357 Y   0.0051 Z
    Strength   :     0.0001782232
    D(  139) --> S(    2) amplitude =  0.8797 beta
    D(  140) --> S(    2) amplitude =  0.1853 beta
    D(  142) --> S(    2) amplitude =  0.1531 beta
    D(  144) --> S(    2) amplitude = -0.1732 beta

 Excited state  58: excitation energy (eV) =    5.6072
 Total energy for state 58:                 -3127.70937532 au
    <S**2>     :  8.9985
    Trans. Mom.:  0.1778 X   0.1815 Y   0.2556 Z
    Strength   :     0.0178424187
    S(    5) --> V(    1) amplitude =  0.2425 alpha
    S(    5) --> V(    5) amplitude = -0.3009 alpha
    D(  136) --> S(    1) amplitude = -0.1977 beta
    D(  140) --> S(    1) amplitude =  0.4106 beta
    D(  143) --> S(    1) amplitude =  0.1753 beta
    D(  146) --> V(    2) amplitude =  0.1900 beta
    D(  147) --> V(    1) amplitude = -0.2574 beta
    D(  147) --> V(    5) amplitude =  0.2377 beta
    D(  147) --> V(    7) amplitude = -0.1653 beta

 Excited state  59: excitation energy (eV) =    5.6107
 Total energy for state 59:                 -3127.70924877 au
    <S**2>     :  8.9821
    Trans. Mom.: -0.3301 X   0.2112 Y  -0.3113 Z
    Strength   :     0.0344301286
    S(    5) --> V(    1) amplitude = -0.1774 alpha
    S(    5) --> V(    5) amplitude =  0.2053 alpha
    D(  136) --> S(    1) amplitude = -0.2584 beta
    D(  138) --> S(    1) amplitude =  0.1788 beta
    D(  140) --> S(    1) amplitude =  0.5445 beta
    D(  142) --> S(    1) amplitude = -0.1582 beta
    D(  143) --> S(    1) amplitude =  0.1795 beta
    D(  147) --> V(    1) amplitude =  0.2316 beta

 Excited state  60: excitation energy (eV) =    5.6480
 Total energy for state 60:                 -3127.70787699 au
    <S**2>     :  9.8640
    Trans. Mom.: -0.0085 X  -0.1537 Y  -0.0354 Z
    Strength   :     0.0034503749
    S(    4) --> V(    2) amplitude = -0.2291 alpha
    D(  134) --> S(    4) amplitude =  0.1853 beta
    D(  146) --> S(    5) amplitude =  0.1805 beta
    D(  146) --> V(    1) amplitude =  0.4430 beta
    D(  146) --> V(    2) amplitude =  0.1640 beta
    D(  146) --> V(    3) amplitude =  0.2198 beta
    D(  146) --> V(    4) amplitude = -0.2021 beta
    D(  147) --> V(    1) amplitude = -0.1727 beta
    D(  147) --> V(    2) amplitude = -0.2492 beta

 Excited state  61: excitation energy (eV) =    5.6596
 Total energy for state 61:                 -3127.70744972 au
    <S**2>     :  9.2450
    Trans. Mom.: -0.0498 X  -0.2485 Y  -0.0657 Z
    Strength   :     0.0095062342
    S(    4) --> V(    1) amplitude = -0.2608 alpha
    S(    4) --> V(    2) amplitude =  0.3772 alpha
    S(    4) --> V(    5) amplitude = -0.1737 alpha
    S(    5) --> V(    5) amplitude =  0.2235 alpha
    D(  122) --> S(    1) amplitude = -0.1925 beta
    D(  123) --> S(    1) amplitude = -0.1878 beta
    D(  125) --> S(    1) amplitude = -0.2015 beta
    D(  135) --> S(    1) amplitude = -0.2984 beta
    D(  144) --> S(    1) amplitude = -0.1747 beta

 Excited state  62: excitation energy (eV) =    5.6669
 Total energy for state 62:                 -3127.70718154 au
    <S**2>     : 10.6933
    Trans. Mom.: -0.0619 X  -0.0095 Y  -0.0093 Z
    Strength   :     0.0005561075
    S(    1) --> V(    1) amplitude =  0.1501 alpha
    S(    1) --> V(   39) amplitude = -0.1799 alpha
    S(    1) --> V(   41) amplitude = -0.1692 alpha
    S(    2) --> V(   39) amplitude =  0.2038 alpha
    S(    2) --> V(   41) amplitude =  0.1878 alpha
    D(  144) --> V(   36) amplitude = -0.1556 beta
    D(  144) --> V(   39) amplitude =  0.2175 beta
    D(  144) --> V(   41) amplitude =  0.2068 beta

 Excited state  63: excitation energy (eV) =    5.6729
 Total energy for state 63:                 -3127.70696069 au
    <S**2>     :  9.2653
    Trans. Mom.:  0.1923 X   0.1625 Y   0.0450 Z
    Strength   :     0.0090897579
    S(    4) --> V(    1) amplitude = -0.1764 alpha
    S(    4) --> V(    2) amplitude =  0.3813 alpha
    S(    4) --> V(    5) amplitude = -0.2100 alpha
    D(  123) --> S(    1) amplitude =  0.1538 beta
    D(  125) --> S(    1) amplitude =  0.1660 beta
    D(  134) --> S(    4) amplitude =  0.3178 beta
    D(  135) --> S(    1) amplitude =  0.2874 beta
    D(  144) --> S(    1) amplitude =  0.1580 beta

 Excited state  64: excitation energy (eV) =    5.6822
 Total energy for state 64:                 -3127.70661986 au
    <S**2>     :  9.4469
    Trans. Mom.:  0.3145 X  -0.1833 Y   0.1938 Z
    Strength   :     0.0236789588
    S(    4) --> V(    1) amplitude =  0.4100 alpha
    S(    4) --> V(    2) amplitude =  0.1749 alpha
    S(    4) --> V(    4) amplitude =  0.2866 alpha
    D(  134) --> S(    4) amplitude =  0.4091 beta
    D(  139) --> S(    3) amplitude = -0.3010 beta

 Excited state  65: excitation energy (eV) =    5.6943
 Total energy for state 65:                 -3127.70617605 au
    <S**2>     :  9.3483
    Trans. Mom.:  0.0199 X  -0.1363 Y   0.0367 Z
    Strength   :     0.0028338551
    S(    4) --> V(    1) amplitude =  0.1512 alpha
    D(  134) --> S(    4) amplitude =  0.2001 beta
    D(  139) --> S(    3) amplitude =  0.6159 beta
    D(  147) --> V(    1) amplitude =  0.1567 beta

 Excited state  66: excitation energy (eV) =    5.7013
 Total energy for state 66:                 -3127.70591902 au
    <S**2>     :  9.6670
    Trans. Mom.: -0.1236 X   0.0432 Y  -0.0573 Z
    Strength   :     0.0028558086
    S(    5) --> V(    1) amplitude = -0.1537 alpha
    D(  123) --> S(    1) amplitude =  0.1653 beta
    D(  139) --> S(    3) amplitude =  0.5308 beta
    D(  147) --> V(    1) amplitude = -0.1601 beta

 Excited state  67: excitation energy (eV) =    5.7234
 Total energy for state 67:                 -3127.70510746 au
    <S**2>     : 10.0262
    Trans. Mom.: -0.1119 X  -0.0797 Y   0.0283 Z
    Strength   :     0.0027599961
    D(  143) --> V(   39) amplitude = -0.1572 alpha
    S(    3) --> V(    1) amplitude =  0.1508 alpha
    S(    4) --> V(    1) amplitude =  0.2334 alpha
    S(    4) --> V(    2) amplitude =  0.1749 alpha
    S(    4) --> V(    4) amplitude =  0.1596 alpha
    D(  134) --> S(    4) amplitude = -0.3306 beta
    D(  139) --> V(   39) amplitude =  0.1509 beta
    D(  141) --> S(    2) amplitude =  0.1533 beta
    D(  145) --> V(    1) amplitude =  0.1838 beta

 Excited state  68: excitation energy (eV) =    5.7290
 Total energy for state 68:                 -3127.70490165 au
    <S**2>     :  8.9635
    Trans. Mom.: -0.0076 X   0.0191 Y   0.0022 Z
    Strength   :     0.0000600396
    D(  136) --> S(    2) amplitude = -0.2134 beta
    D(  139) --> S(    2) amplitude =  0.1710 beta
    D(  141) --> S(    2) amplitude =  0.8034 beta
    D(  141) --> S(    3) amplitude = -0.1501 beta
    D(  142) --> S(    2) amplitude = -0.2636 beta
    D(  143) --> S(    2) amplitude =  0.1871 beta

 Excited state  69: excitation energy (eV) =    5.7341
 Total energy for state 69:                 -3127.70471244 au
    <S**2>     : 10.3592
    Trans. Mom.:  0.0898 X   0.0526 Y  -0.0017 Z
    Strength   :     0.0015212951
    D(  143) --> V(   39) amplitude = -0.2116 alpha
    D(  143) --> V(   41) amplitude = -0.1944 alpha
    D(  134) --> S(    4) amplitude =  0.1939 beta
    D(  139) --> V(   39) amplitude =  0.2066 beta
    D(  139) --> V(   41) amplitude =  0.1957 beta
    D(  141) --> S(    2) amplitude =  0.1983 beta

 Excited state  70: excitation energy (eV) =    5.7546
 Total energy for state 70:                 -3127.70395922 au
    <S**2>     :  9.4599
    Trans. Mom.:  0.1138 X  -0.1639 Y   0.0593 Z
    Strength   :     0.0061086750
    D(  135) --> S(    1) amplitude = -0.2606 beta
    D(  140) --> S(    1) amplitude =  0.1945 beta
    D(  146) --> S(    5) amplitude =  0.1956 beta
    D(  146) --> V(    1) amplitude =  0.1641 beta
    D(  146) --> V(    2) amplitude = -0.2263 beta
    D(  146) --> V(    5) amplitude =  0.4952 beta
    D(  147) --> V(    5) amplitude = -0.1513 beta

 Excited state  71: excitation energy (eV) =    5.7558
 Total energy for state 71:                 -3127.70391549 au
    <S**2>     :  8.8651
    Trans. Mom.:  0.1196 X  -0.0650 Y   0.1072 Z
    Strength   :     0.0042348354
    D(  136) --> S(    3) amplitude = -0.1963 beta
    D(  139) --> S(    3) amplitude =  0.2369 beta
    D(  141) --> S(    3) amplitude =  0.7447 beta
    D(  142) --> S(    3) amplitude = -0.2189 beta
    D(  143) --> S(    3) amplitude =  0.1891 beta

 Excited state  72: excitation energy (eV) =    5.7594
 Total energy for state 72:                 -3127.70378235 au
    <S**2>     : 10.6998
    Trans. Mom.:  0.0075 X   0.0090 Y   0.0048 Z
    Strength   :     0.0000225973
    D(  141) --> V(   38) amplitude = -0.2014 alpha
    D(  147) --> V(   38) amplitude =  0.2556 alpha
    D(  147) --> V(   42) amplitude =  0.1722 alpha
    D(  137) --> V(   38) amplitude =  0.2117 beta
    D(  142) --> V(   38) amplitude =  0.2041 beta
    D(  143) --> V(   38) amplitude = -0.1730 beta

 Excited state  73: excitation energy (eV) =    5.7607
 Total energy for state 73:                 -3127.70373563 au
    <S**2>     :  9.3280
    Trans. Mom.:  0.1222 X  -0.0798 Y  -0.1319 Z
    Strength   :     0.0054589451
    S(    3) --> V(    1) amplitude =  0.1820 alpha
    S(    3) --> V(    2) amplitude =  0.1932 alpha
    S(    4) --> V(    2) amplitude = -0.1532 alpha
    S(    4) --> V(    4) amplitude = -0.1646 alpha
    D(  122) --> S(    2) amplitude = -0.1570 beta
    D(  123) --> S(    2) amplitude = -0.1542 beta
    D(  132) --> S(    4) amplitude = -0.1575 beta
    D(  134) --> S(    4) amplitude =  0.2903 beta
    D(  135) --> S(    1) amplitude = -0.1614 beta
    D(  145) --> V(    1) amplitude =  0.2462 beta

 Excited state  74: excitation energy (eV) =    5.7767
 Total energy for state 74:                 -3127.70314707 au
    <S**2>     :  9.1070
    Trans. Mom.:  0.0571 X  -0.1033 Y   0.0051 Z
    Strength   :     0.0019749194
    S(    3) --> V(    1) amplitude = -0.2320 alpha
    S(    3) --> V(    2) amplitude = -0.2311 alpha
    D(  122) --> S(    2) amplitude = -0.2845 beta
    D(  123) --> S(    2) amplitude = -0.2956 beta
    D(  124) --> S(    2) amplitude =  0.1608 beta
    D(  125) --> S(    2) amplitude = -0.2380 beta
    D(  127) --> S(    2) amplitude =  0.2053 beta
    D(  128) --> S(    2) amplitude = -0.1617 beta
    D(  131) --> S(    2) amplitude =  0.1801 beta
    D(  135) --> S(    2) amplitude = -0.1966 beta
    D(  144) --> S(    2) amplitude = -0.1664 beta
    D(  146) --> V(    1) amplitude =  0.1769 beta

 Excited state  75: excitation energy (eV) =    5.7860
 Total energy for state 75:                 -3127.70280686 au
    <S**2>     : 10.6304
    Trans. Mom.: -0.0311 X  -0.0222 Y  -0.0152 Z
    Strength   :     0.0002403272
    D(  141) --> V(   38) amplitude = -0.1636 alpha
    D(  144) --> V(   38) amplitude = -0.1917 alpha
    D(  140) --> V(   38) amplitude =  0.1706 beta
    D(  141) --> V(   38) amplitude =  0.1912 beta

 Excited state  76: excitation energy (eV) =    5.7894
 Total energy for state 76:                 -3127.70268114 au
    <S**2>     :  9.0425
    Trans. Mom.: -0.0677 X  -0.1112 Y  -0.0692 Z
    Strength   :     0.0030843737
    D(  123) --> S(    1) amplitude =  0.4523 beta
    D(  124) --> S(    1) amplitude = -0.2027 beta
    D(  126) --> S(    1) amplitude =  0.1642 beta
    D(  128) --> S(    1) amplitude =  0.2552 beta
    D(  130) --> S(    1) amplitude =  0.2117 beta
    D(  132) --> S(    4) amplitude =  0.1858 beta
    D(  135) --> S(    1) amplitude = -0.2457 beta
    D(  143) --> S(    1) amplitude =  0.1634 beta
    D(  146) --> V(    5) amplitude = -0.2093 beta

 Excited state  77: excitation energy (eV) =    5.8007
 Total energy for state 77:                 -3127.70226478 au
    <S**2>     :  8.8070
    Trans. Mom.:  0.0798 X   0.0792 Y  -0.1112 Z
    Strength   :     0.0035541781
    D(  140) --> V(   23) amplitude =  0.1541 alpha
    D(  140) --> V(   24) amplitude = -0.1902 alpha
    D(  140) --> S(    3) amplitude = -0.2292 beta
    D(  141) --> S(    3) amplitude =  0.3209 beta

 Excited state  78: excitation energy (eV) =    5.8053
 Total energy for state 78:                 -3127.70209493 au
    <S**2>     :  8.8487
    Trans. Mom.:  0.2052 X   0.1735 Y  -0.3368 Z
    Strength   :     0.0264072434
    S(    3) --> V(    1) amplitude = -0.3066 alpha
    S(    3) --> V(    2) amplitude = -0.2984 alpha
    S(    3) --> V(    5) amplitude = -0.1886 alpha
[...]
  1.3346   1.3371   1.3379   1.3411   1.3433   1.3465   1.3492   1.3567
  1.3588   1.3618   1.3647   1.3678   1.3716   1.3780   1.3820   1.3920
  1.3957   1.3983   1.4004   1.4073   1.4106   1.4174   1.4215   1.4225
  1.4274   1.4307   1.4373   1.4414   1.4464   1.4470   1.4575   1.4586
  1.4598   1.4679   1.4747   1.4759   1.4788   1.4791   1.4907   1.4942
  1.5032   1.5088   1.5155   1.5180   1.5226   1.5283   1.5322   1.5348
  1.5385   1.5407   1.5450   1.5515   1.5552   1.5602   1.5614   1.5648
  1.5687   1.5754   1.5834   1.5874   1.5918   1.5995   1.6008   1.6028
  1.6058   1.6111   1.6126   1.6180   1.6212   1.6277   1.6371   1.6389
  1.6421   1.6473   1.6502   1.6550   1.6580   1.6688   1.6716   1.6724
  1.6742   1.6771   1.6851   1.6881   1.6921   1.6932   1.6963   1.7016
  1.7042   1.7057   1.7110   1.7179   1.7197   1.7216   1.7289   1.7364
  1.7391   1.7442   1.7457   1.7506   1.7531   1.7549   1.7608   1.7616
  1.7649   1.7675   1.7700   1.7763   1.7782   1.7846   1.7871   1.7911
  1.8020   1.8050   1.8069   1.8122   1.8167   1.8199   1.8249   1.8291
  1.8363   1.8410   1.8432   1.8488   1.8497   1.8527   1.8574   1.8597
  1.8621   1.8678   1.8741   1.8774   1.8814   1.8821   1.8890   1.8929
  1.8974   1.9042   1.9063   1.9089   1.9143   1.9184   1.9262   1.9314
  1.9331   1.9393   1.9405   1.9440   1.9529   1.9556   1.9560   1.9605
  1.9658   1.9690   1.9714   1.9771   1.9833   1.9859   1.9945   1.9958
  1.9988   2.0034   2.0075   2.0111   2.0123   2.0212   2.0236   2.0276
  2.0335   2.0376   2.0418   2.0468   2.0483   2.0545   2.0594   2.0607
  2.0671   2.0693   2.0761   2.0794   2.0804   2.0864   2.0884   2.0901
  2.0955   2.0976   2.1053   2.1056   2.1071   2.1114   2.1161   2.1176
  2.1220   2.1245   2.1309   2.1351   2.1385   2.1426   2.1481   2.1506
  2.1574   2.1613   2.1669   2.1688   2.1749   2.1807   2.1867   2.1883
  2.1895   2.1943   2.1991   2.2064   2.2096   2.2124   2.2212   2.2257
  2.2317   2.2342   2.2354   2.2374   2.2416   2.2468   2.2587   2.2624
  2.2647   2.2745   2.2796   2.2861   2.2907   2.2912   2.2998   2.3080
  2.3100   2.3131   2.3174   2.3215   2.3306   2.3323   2.3362   2.3402
  2.3493   2.3524   2.3551   2.3605   2.3683   2.3702   2.3749   2.3833
  2.3861   2.3875   2.3901   2.4043   2.4082   2.4123   2.4152   2.4192
  2.4253   2.4286   2.4326   2.4375   2.4458   2.4514   2.4574   2.4627
  2.4697   2.4737   2.4817   2.4866   2.4928   2.4947   2.5017   2.5058
  2.5118   2.5181   2.5223   2.5340   2.5364   2.5384   2.5423   2.5537
  2.5555   2.5627   2.5698   2.5710   2.5754   2.5872   2.5967   2.5986
  2.6086   2.6107   2.6176   2.6204   2.6361   2.6399   2.6428   2.6549
  2.6569   2.6663   2.6676   2.6752   2.6825   2.6830   2.6925   2.6942
  2.6975   2.6981   2.7090   2.7120   2.7227   2.7282   2.7370   2.7485
  2.7594   2.7630   2.7660   2.7722   2.7823   2.7941   2.7995   2.8091
  2.8106   2.8199   2.8278   2.8367   2.8400   2.8481   2.8562   2.8580
  2.8738   2.8802   2.8866   2.8952   2.9027   2.9071   2.9150   2.9175
  2.9285   2.9351   2.9437   2.9554   2.9579   2.9668   2.9739   2.9807
  3.0071   3.0133   3.0174   3.0220   3.0289   3.0320   3.0624   3.0754
  3.0834   3.0941   3.1119   3.1202   3.1283   3.1496   3.1762   3.1941
  3.2131   3.2247   3.2599   3.2630   3.2770   3.2968   3.3215   3.3357
  3.3703   3.3962   3.4013   3.4237   3.4441   3.4637   3.4709   3.5009
  3.5082   3.5186   3.5301   3.5434   3.5463   3.5632   3.5723   3.5784
  3.5785   3.5859   3.5902   3.5926   3.6017   3.6035   3.6130   3.6148
  3.6184   3.6264   3.6304   3.6380   3.6411   3.6481   3.6610   3.6642
  3.6736   3.6797   3.6832   3.6863   3.6999   3.7162   3.7201   3.7354
  3.7447   3.7476   3.7531   3.7646   3.7706   3.7841   3.8038   3.8106
  3.8156   3.8294   3.8313   3.8550   3.8659   3.8716   3.8779   3.8884
  3.9136   3.9218   3.9537   3.9586   3.9722   3.9758   3.9831   3.9957
  4.0171   4.0400   4.0418   4.0659   4.0772   4.0968   4.1269   4.1440
  4.1504   4.1960   4.2120   4.2350   4.2958   4.3422   4.3942   4.4328
  4.5113   4.5751   4.6134   4.7337
 
 Beta MOs
 -- Occupied --
******** -30.1434 -26.0137 -26.0124 -26.0113 -19.2148 -19.2146 -19.2090
-19.2085 -19.2056 -19.2017 -19.1904 -19.1675 -19.1639 -19.1602 -19.1582
-14.4924 -14.4876 -14.4217 -14.4150 -10.3715 -10.3708 -10.3664 -10.3648
-10.3477 -10.3417 -10.3363 -10.2943 -10.2904 -10.2890 -10.2848 -10.2652
-10.2632 -10.2551 -10.2519 -10.2472 -10.2437 -10.2429 -10.2394 -10.2375
-10.2315  -3.5108  -2.2720  -2.2699  -2.2684  -1.1711  -1.1651  -1.1265
 -1.1205  -1.1108  -1.1054  -1.0967  -1.0932  -1.0898  -1.0249  -1.0170
 -0.9999  -0.9985  -0.9402  -0.9321  -0.8822  -0.8741  -0.8619  -0.8419
 -0.8315  -0.8127  -0.8048  -0.7968  -0.7724  -0.7649  -0.7183  -0.7130
 -0.6776  -0.6707  -0.6456  -0.6406  -0.6305  -0.6153  -0.6063  -0.6045
 -0.5968  -0.5858  -0.5806  -0.5746  -0.5707  -0.5648  -0.5556  -0.5514
 -0.5473  -0.5428  -0.5362  -0.5275  -0.5242  -0.5222  -0.5182  -0.5111
 -0.5076  -0.5064  -0.4944  -0.4915  -0.4891  -0.4843  -0.4829  -0.4808
 -0.4761  -0.4753  -0.4717  -0.4694  -0.4644  -0.4615  -0.4565  -0.4547
 -0.4514  -0.4480  -0.4464  -0.4379  -0.4362  -0.4321  -0.4221  -0.4203
 -0.4194  -0.4093  -0.3999  -0.3959  -0.3903  -0.3890  -0.3840  -0.3808
 -0.3748  -0.3738  -0.3702  -0.3623  -0.3611  -0.3548  -0.3490  -0.3347
 -0.3267  -0.3207  -0.3129  -0.3128  -0.3085  -0.3023  -0.3013  -0.2982
 -0.2799  -0.2729  -0.2669
 -- Virtual --
 -0.0457  -0.0402  -0.0373   0.0034   0.0106   0.0133   0.0178   0.0200
  0.0201   0.0247   0.0299   0.0307   0.0328   0.0346   0.0363   0.0446
  0.0459   0.0475   0.0495   0.0504   0.0560   0.0566   0.0605   0.0622
  0.0654   0.0672   0.0678   0.0686   0.0712   0.0722   0.0736   0.0761
  0.0773   0.0811   0.0833   0.0843   0.0865   0.0874   0.0911   0.0924
  0.0935   0.0956   0.0981   0.0994   0.1011   0.1027   0.1049   0.1073
  0.1080   0.1112   0.1134   0.1169   0.1176   0.1204   0.1217   0.1235
  0.1241   0.1278   0.1289   0.1310   0.1316   0.1333   0.1354   0.1376
  0.1393   0.1403   0.1410   0.1421   0.1437   0.1457   0.1469   0.1490
  0.1498   0.1505   0.1558   0.1561   0.1590   0.1626   0.1633   0.1643
  0.1663   0.1675   0.1690   0.1717   0.1744   0.1762   0.1773   0.1788
  0.1793   0.1819   0.1839   0.1851   0.1862   0.1871   0.1921   0.1939
  0.1946   0.1959   0.1983   0.1995   0.2015   0.2020   0.2070   0.2079
  0.2095   0.2114   0.2130   0.2142   0.2165   0.2178   0.2204   0.2212
  0.2250   0.2255   0.2275   0.2294   0.2309   0.2328   0.2347   0.2371
  0.2392   0.2405   0.2418   0.2442   0.2458   0.2493   0.2515   0.2535
  0.2536   0.2542   0.2580   0.2606   0.2624   0.2631   0.2645   0.2656
  0.2671   0.2690   0.2701   0.2707   0.2727   0.2752   0.2762   0.2792
  0.2812   0.2820   0.2829   0.2853   0.2888   0.2911   0.2926   0.2966
  0.2980   0.2984   0.2993   0.3008   0.3020   0.3046   0.3067   0.3070
  0.3089   0.3096   0.3126   0.3132   0.3149   0.3175   0.3187   0.3197
  0.3219   0.3241   0.3273   0.3304   0.3311   0.3352   0.3374   0.3388
  0.3404   0.3422   0.3431   0.3452   0.3467   0.3487   0.3499   0.3519
  0.3529   0.3556   0.3562   0.3567   0.3580   0.3619   0.3648   0.3672
  0.3681   0.3690   0.3702   0.3730   0.3743   0.3757   0.3777   0.3795
  0.3814   0.3840   0.3869   0.3879   0.3900   0.3922   0.3948   0.3958
  0.3993   0.4013   0.4026   0.4039   0.4069   0.4083   0.4087   0.4129
  0.4145   0.4177   0.4186   0.4200   0.4227   0.4233   0.4253   0.4271
  0.4307   0.4321   0.4334   0.4341   0.4353   0.4390   0.4421   0.4430
  0.4459   0.4485   0.4491   0.4508   0.4559   0.4577   0.4606   0.4610
  0.4640   0.4689   0.4708   0.4723   0.4734   0.4764   0.4774   0.4801
  0.4816   0.4834   0.4860   0.4878   0.4915   0.4942   0.4961   0.4990
  0.5000   0.5033   0.5087   0.5088   0.5103   0.5138   0.5159   0.5180
  0.5197   0.5223   0.5244   0.5276   0.5289   0.5297   0.5328   0.5335
  0.5368   0.5392   0.5409   0.5435   0.5457   0.5474   0.5509   0.5525
  0.5550   0.5558   0.5582   0.5590   0.5610   0.5641   0.5649   0.5670
  0.5686   0.5740   0.5755   0.5770   0.5789   0.5831   0.5876   0.5899
  0.5909   0.5919   0.5935   0.5951   0.5979   0.6000   0.6019   0.6040
  0.6069   0.6081   0.6116   0.6134   0.6162   0.6193   0.6208   0.6254
  0.6256   0.6259   0.6294   0.6326   0.6350   0.6362   0.6402   0.6410
  0.6421   0.6446   0.6474   0.6501   0.6521   0.6548   0.6565   0.6588
  0.6611   0.6638   0.6646   0.6675   0.6696   0.6714   0.6748   0.6763
  0.6787   0.6795   0.6838   0.6872   0.6891   0.6902   0.6927   0.6951
  0.6974   0.7005   0.7018   0.7028   0.7070   0.7082   0.7096   0.7113
  0.7148   0.7186   0.7205   0.7218   0.7230   0.7266   0.7292   0.7316
  0.7334   0.7364   0.7389   0.7418   0.7443   0.7483   0.7492   0.7524
  0.7537   0.7574   0.7589   0.7606   0.7640   0.7670   0.7690   0.7699
  0.7713   0.7732   0.7784   0.7822   0.7831   0.7878   0.7898   0.7909
  0.7946   0.7954   0.7998   0.8019   0.8035   0.8058   0.8082   0.8098
  0.8128   0.8136   0.8168   0.8199   0.8219   0.8242   0.8264   0.8284
  0.8286   0.8332   0.8355   0.8366   0.8427   0.8432   0.8494   0.8513
  0.8546   0.8559   0.8573   0.8599   0.8634   0.8646   0.8661   0.8688
  0.8689   0.8706   0.8744   0.8785   0.8824   0.8842   0.8865   0.8881
  0.8909   0.8949   0.8963   0.8980   0.9008   0.9063   0.9101   0.9130
  0.9151   0.9159   0.9215   0.9250   0.9318   0.9337   0.9351   0.9371
  0.9418   0.9433   0.9473   0.9550   0.9563   0.9598   0.9610   0.9630
  0.9641   0.9720   0.9754   0.9768   0.9829   0.9841   0.9857   0.9922
  0.9935   0.9972   1.0007   1.0018   1.0068   1.0078   1.0135   1.0139
  1.0186   1.0214   1.0226   1.0277   1.0323   1.0393   1.0428   1.0456
  1.0474   1.0536   1.0598   1.0615   1.0673   1.0676   1.0726   1.0754
  1.0772   1.0774   1.0846   1.0872   1.0911   1.0930   1.0999   1.1012
  1.1060   1.1062   1.1097   1.1125   1.1159   1.1227   1.1251   1.1265
  1.1288   1.1360   1.1383   1.1416   1.1439   1.1508   1.1576   1.1613
  1.1643   1.1700   1.1750   1.1782   1.1794   1.1889   1.1896   1.1935
  1.1955   1.2008   1.2048   1.2102   1.2130   1.2145   1.2188   1.2228
  1.2279   1.2326   1.2331   1.2387   1.2414   1.2420   1.2441   1.2523
  1.2559   1.2575   1.2618   1.2661   1.2693   1.2728   1.2763   1.2796
  1.2826   1.2832   1.2865   1.2911   1.3007   1.3037   1.3073   1.3104
  1.3142   1.3171   1.3186   1.3277   1.3339   1.3369   1.3394   1.3406
  1.3430   1.3449   1.3500   1.3510   1.3573   1.3602   1.3644   1.3666
  1.3705   1.3730   1.3808   1.3843   1.3961   1.3976   1.4006   1.4031
  1.4101   1.4117   1.4187   1.4229   1.4243   1.4303   1.4331   1.4382
  1.4431   1.4477   1.4486   1.4588   1.4618   1.4629   1.4692   1.4769
  1.4780   1.4808   1.4815   1.4924   1.4965   1.5052   1.5110   1.5172
  1.5200   1.5240   1.5295   1.5336   1.5386   1.5410   1.5423   1.5496
  1.5534   1.5592   1.5617   1.5633   1.5662   1.5714   1.5777   1.5849
  1.5909   1.5948   1.6020   1.6041   1.6064   1.6078   1.6137   1.6151
  1.6210   1.6242   1.6300   1.6389   1.6422   1.6455   1.6498   1.6521
  1.6570   1.6607   1.6701   1.6730   1.6740   1.6768   1.6801   1.6875
  1.6914   1.6940   1.6970   1.7005   1.7041   1.7065   1.7086   1.7145
  1.7208   1.7229   1.7251   1.7315   1.7393   1.7413   1.7468   1.7483
  1.7545   1.7564   1.7569   1.7634   1.7643   1.7671   1.7712   1.7743
  1.7787   1.7811   1.7859   1.7888   1.7962   1.8037   1.8075   1.8107
  1.8136   1.8193   1.8224   1.8269   1.8314   1.8390   1.8436   1.8480
  1.8515   1.8525   1.8564   1.8606   1.8624   1.8656   1.8717   1.8767
  1.8793   1.8843   1.8858   1.8906   1.8954   1.8992   1.9076   1.9098
  1.9137   1.9165   1.9205   1.9294   1.9346   1.9353   1.9421   1.9445
  1.9467   1.9556   1.9582   1.9591   1.9644   1.9680   1.9711   1.9764
  1.9810   1.9866   1.9882   1.9964   1.9989   2.0026   2.0085   2.0130
  2.0142   2.0153   2.0234   2.0258   2.0294   2.0353   2.0404   2.0436
  2.0485   2.0496   2.0578   2.0615   2.0633   2.0684   2.0711   2.0773
  2.0811   2.0827   2.0873   2.0906   2.0920   2.0981   2.0996   2.1066
  2.1082   2.1098   2.1146   2.1177   2.1214   2.1239   2.1274   2.1329
  2.1366   2.1406   2.1448   2.1506   2.1566   2.1597   2.1651   2.1703
  2.1728   2.1763   2.1831   2.1902   2.1914   2.1939   2.1981   2.2026
  2.2089   2.2134   2.2158   2.2238   2.2301   2.2343   2.2382   2.2391
  2.2407   2.2444   2.2537   2.2611   2.2655   2.2675   2.2780   2.2838
  2.2869   2.2918   2.2940   2.3016   2.3099   2.3116   2.3158   2.3188
  2.3226   2.3333   2.3355   2.3384   2.3434   2.3518   2.3575   2.3582
  2.3628   2.3702   2.3724   2.3764   2.3865   2.3878   2.3924   2.3939
  2.4082   2.4115   2.4142   2.4185   2.4235   2.4268   2.4302   2.4346
  2.4403   2.4494   2.4563   2.4598   2.4662   2.4741   2.4753   2.4831
  2.4886   2.4953   2.4969   2.5057   2.5069   2.5132   2.5192   2.5237
  2.5347   2.5378   2.5413   2.5448   2.5558   2.5581   2.5647   2.5722
  2.5729   2.5785   2.5897   2.5978   2.6008   2.6107   2.6124   2.6214
  2.6250   2.6380   2.6420   2.6465   2.6573   2.6597   2.6681   2.6688
  2.6781   2.6836   2.6863   2.6943   2.6953   2.6987   2.7018   2.7121
  2.7151   2.7250   2.7293   2.7397   2.7500   2.7608   2.7647   2.7675
  2.7738   2.7864   2.7988   2.8012   2.8106   2.8122   2.8244   2.8287
  2.8382   2.8407   2.8516   2.8586   2.8624   2.8754   2.8822   2.8884
  2.8964   2.9058   2.9138   2.9181   2.9216   2.9351   2.9395   2.9444
  2.9579   2.9613   2.9688   2.9797   2.9862   3.0078   3.0146   3.0186
  3.0234   3.0299   3.0349   3.0728   3.0854   3.0899   3.1059   3.1200
  3.1269   3.1488   3.1557   3.1830   3.2054   3.2144   3.2277   3.2627
  3.2652   3.2835   3.2997   3.3242   3.3396   3.3722   3.3978   3.4037
  3.4285   3.4461   3.4677   3.4753   3.5064   3.5091   3.5211   3.5312
  3.5439   3.5511   3.5680   3.5755   3.5805   3.5841   3.5883   3.5952
  3.5979   3.6051   3.6068   3.6168   3.6194   3.6205   3.6319   3.6380
  3.6424   3.6477   3.6531   3.6638   3.6701   3.6796   3.6856   3.6905
  3.6939   3.7064   3.7199   3.7310   3.7408   3.7503   3.7574   3.7601
  3.7719   3.7769   3.7899   3.8112   3.8213   3.8264   3.8386   3.8392
  3.8700   3.8782   3.8789   3.8835   3.8942   3.9300   3.9417   3.9635
  3.9785   3.9849   3.9867   4.0014   4.0217   4.0361   4.0510   4.0673
  4.0897   4.0956   4.1207   4.1431   4.1660   4.2160   4.2212   4.2515
  4.3060   4.3588   4.3852   4.4513   4.4799   4.5977   4.6370   4.6776
  4.8233
 --------------------------------------------------------------
 
          Ground-State Mulliken Net Atomic Charges

     Atom                 Charge (a.u.)    Spin (a.u.)
  --------------------------------------------------------
      1 N                     0.837988       0.014773
      2 C                     1.021020       0.000165
      3 H                    -0.693405      -0.000003
      4 N                     0.121600       0.000888
      5 H                     0.058299      -0.000236
      6 C                     0.939153      -0.000227
      7 O                    -0.916528       0.000009
      8 C                     0.534476      -0.001221
      9 O                    -0.871061       0.000260
     10 C                    -1.110030      -0.024946
     11 C                     1.568695       0.004789
     12 H                    -0.139986      -0.000368
     13 H                    -0.138056      -0.000075
     14 H                    -0.514056       0.000209
     15 C                     1.568353       0.011349
     16 H                    -0.433036       0.000749
     17 H                    -0.589337       0.000493
     18 C                    -1.025598      -0.025540
     19 C                     3.024788       0.034649
     20 H                    -1.554316      -0.000042
     21 C                    -0.724489      -0.014247
     22 O                    -0.526648       0.111398
     23 N                     0.089379       0.007687
     24 H                    -0.067885       0.000704
     25 C                     0.934742       0.000719
     26 O                    -1.005526       0.000401
     27 N                     1.230277       0.016078
     28 C                    -0.833827      -0.014792
     29 C                     1.930799       0.004071
     30 H                    -0.408826       0.000378
     31 H                    -0.256105       0.001423
     32 H                    -0.378062       0.000110
     33 C                     1.137464       0.000537
     34 H                    -0.740660       0.000595
     35 H                    -0.588231       0.000584
     36 C                     1.328805       0.000134
     37 H                    -0.556186       0.000498
     38 H                    -0.736324      -0.000675
     39 C                     1.410614       0.001575
     40 H                    -0.897728      -0.000654
     41 H                    -0.534132       0.000411
     42 C                     1.169237       0.002588
     43 H                    -0.466950       0.000079
     44 H                    -0.555183       0.000134
     45 C                     0.572371      -0.002419
     46 H                    -0.596948      -0.000048
     47 C                     1.366426       0.001200
     48 H                    -0.560812      -0.000494
     49 H                    -0.554905       0.000205
     50 C                     1.231133      -0.002281
     51 H                    -0.601053       0.001449
     52 H                    -0.666049       0.000672
     53 C                     1.446966       0.000637
     54 H                    -1.301574      -0.000337
     55 H                    -0.589489       0.000426
     56 C                     0.892530       0.000955
     57 H                    -0.531523       0.000005
     58 H                    -0.640547       0.000083
     59 O                    -0.847523      -0.000130
     60 O                    -0.856898       0.000111
     61 O                    -0.903662       0.104759
     62 Fe                    3.346217       4.228636
     63 O                    -1.092821       0.172124
     64 O                    -0.694596       0.096826
     65 O                    -1.224213       0.170675
     66 O                    -0.836549       0.091538
  --------------------------------------------------------
  Sum of atomic charges =    -2.000000
  Sum of spin   charges =     5.000000

 -----------------------------------------------------------------
                    Cartesian Multipole Moments
 -----------------------------------------------------------------
    Charge (ESU x 10^10)
                -9.6064
    Dipole Moment (Debye)
         X      -0.4253      Y     -17.8086      Z      -0.2449
       Tot      17.8154
    Quadrupole Moments (Debye-Ang)
        XX    -378.7002     XY      48.3667     YY    -278.2282
        XZ      14.5563     YZ     -33.5579     ZZ    -267.7984
    Octopole Moments (Debye-Ang^2)
       XXX    -207.6689    XXY    -518.2197    XYY     170.3885
       YYY    -242.7968    XXZ     -31.8675    XYZ     110.9969
       YYZ    -166.0989    XZZ      99.6606    YZZ     -72.9638
       ZZZ    -145.2693
    Hexadecapole Moments (Debye-Ang^3)
      XXXX  -18625.7417   XXXY     809.5091   XXYY   -4142.0336
      XYYY    1687.9891   YYYY   -6956.4002   XXXZ    -306.3637
      XXYZ    -423.9926   XYYZ     255.1431   YYYZ    -396.0055
      XXZZ   -3384.8913   XYZZ     476.4211   YYZZ   -1813.7857
      XZZZ    -552.7866   YZZZ      28.8471   ZZZZ   -3324.3238
 -----------------------------------------------------------------
 Total job time:  322628.40s(wall), 5328613.87s(cpu) 
 Sat Feb 24 09:29:11 2024

        *************************************************************
        *                                                           *
        *  Thank you very much for using Q-Chem.  Have a nice day.  *
        *                                                           *
        *************************************************************


