
Running Job 1 of 1 C_FeABstar2_enol_ccL_2sextet_SkS_b3lypD3bj_ccpVDZ_pcmH2O_opt_2.in
qchem C_FeABstar2_enol_ccL_2sextet_SkS_b3lypD3bj_ccpVDZ_pcmH2O_opt_2.in_1131474.0 /data/scratch/C_FeABstar2_enol_ccL_2sextet_SkS_b3lypD3bj_ccpVDZ_pcmH2O_opt_220230803124849/ 0
/opt/qchem/6.0.1/exe/qcprog.exe_s C_FeABstar2_enol_ccL_2sextet_SkS_b3lypD3bj_ccpVDZ_pcmH2O_opt_2.in_1131474.0 /data/scratch/C_FeABstar2_enol_ccL_2sextet_SkS_b3lypD3bj_ccpVDZ_pcmH2O_opt_220230803124849/
                  Welcome to Q-Chem
     A Quantum Leap Into The Future Of Chemistry


 Q-Chem 6.0, Q-Chem, Inc., Pleasanton, CA (2022)

 E. Epifanovsky,  A. T. B. Gilbert,  Xintian Feng,  Joonho Lee,  Yuezhi Mao,  
 N. Mardirossian,  P. Pokhilko,  A. White,  M. Wormit,  M. P. Coons,  
 A. L. Dempwolff,  Zhengting Gan,  D. Hait,  P. R. Horn,  L. D. Jacobson,  
 I. Kaliman,  J. Kussmann,  A. W. Lange,  Ka Un Lao,  D. S. Levine,  Jie Liu,  
 S. C. McKenzie,  A. F. Morrison,  K. Nanda,  F. Plasser,  D. R. Rehn,  
 M. L. Vidal,  Zhi-Qiang You,  Ying Zhu,  B. Alam,  B. Albrecht,  
 A. Aldossary,  E. Alguire,  J. H. Andersen,  V. Athavale,  D. Barton,  
 K. Begam,  A. Behn,  N. Bellonzi,  Y. A. Bernard,  E. J. Berquist,  
 H. Burton,  A. Carreras,  K. Carter-Fenk,  Romit Chakraborty,  
 Chandrima Chakravarty,  Junhan Chen,  A. D. Chien,  K. D. Closser,  
 V. Cofer-Shabica,  L. Cunha,  S. Dasgupta,  Jia Deng,  M. de Wergifosse,  
 M. Diedenhofen,  Hainam Do,  S. Ehlert,  Po-Tung Fang,  S. Fatehi,  
 Qingguo Feng,  T. Friedhoff,  B. Ganoe,  J. Gayvert,  Qinghui Ge,  
 G. Gidofalvi,  M. Goldey,  J. Gomes,  C. Gonzalez-Espinoza,  S. Gulania,  
 A. Gunina,  J. A. Gyamfi,  M. W. D. Hanson-Heine,  P. H. P. Harbach,  
 A. W. Hauser,  M. F. Herbst,  M. Hernandez Vera,  M. Hodecker,  
 Z. C. Holden,  S. Houck,  Xunkun Huang,  Kerwin Hui,  B. C. Huynh,  
 K. Ikeda,  M. Ivanov,  Hyunjun Ji,  Zuxin Jin,  Hanjie Jiang,  B. Kaduk,  
 S. Kaehler,  R. Kang,  K. Khistyaev,  Jaehoon Kim,  Yongbin Kim,  
 P. Klunzinger,  Z. Koczor-Benda,  Joong Hoon Koh,  D. Kosenkov,  
 Saikiran Kotaru,  L. Koulias,  T. Kowalczyk,  C. M. Krauter,  K. Kue,  
 A. Kunitsa,  T. Kus,  A. Landau,  K. V. Lawler,  D. Lefrancois,  S. Lehtola,  
 Rain Li,  Shaozhi Li,  Yi-Pei Li,  Jiashu Liang,  M. Liebenthal,  
 Hung-Hsuan Lin,  You-Sheng Lin,  Fenglai Liu,  Kuan-Yu Liu,  
 M. Loipersberger,  A. Luenser,  C. Malbon,  A. Manjanath,  P. Manohar,  
 E. Mansoor,  S. F. Manzer,  Shan-Ping Mao,  A. V. Marenich,  T. Markovich,  
 S. Mason,  F. Matz,  S. A. Maurer,  P. F. McLaughlin,  M. F. S. J. Menger,  
 J.-M. Mewes,  S. A. Mewes,  P. Morgante,  Mohammad Mostafanejad,  
 J. W. Mullinax,  K. J. Oosterbaan,  G. Paran,  V. Parravicini,  
 Alexander C. Paul,  Suranjan K. Paul,  F. Pavosevic,  Zheng Pei,  S. Prager,  
 E. I. Proynov,  E. Ramos,  B. Rana,  A. E. Rask,  A. Rettig,  R. M. Richard,  
 F. Rob,  E. Rossomme,  T. Scheele,  M. Scheurer,  M. Schneider,  
 P. E. Schneider,  N. Sergueev,  S. M. Sharada,  Hengyuan Shen,  
 W. Skomorowski,  D. W. Small,  C. J. Stein,  Yingli Su,  Yu-Chuan Su,  
 E. J. Sundstrom,  Zhen Tao,  J. Thirman,  Hung-Yi Tsai,  T. Tsuchimochi,  
 N. M. Tubman,  C. Utku,  S. P. Veccham,  O. Vydrov,  J. Wenzel,  
 Jonathan Wong,  J. Witte,  A. Yamada,  Chou-Hsun Yang,  Kun Yao,  
 S. Yeganeh,  S. R. Yost,  A. Zech,  F. Zeller,  Igor Ying Zhang,  
 Xing Zhang,  Yu Zhang,  D. Zuev,  A. Aspuru-Guzik,  A. T. Bell,  
 N. A. Besley,  K. B. Bravaya,  B. R. Brooks,  D. Casanova,  Jeng-Da Chai,  
 Hsing-Ta Chen,  S. Coriani,  C. J. Cramer,  A. E. DePrince, III,  
 R. A. DiStasio Jr.,  A. Dreuw,  B. D. Dunietz,  T. R. Furlani,  
 W. A. Goddard III,  S. Grimme,  S. Hammes-Schiffer,  T. Head-Gordon,  
 W. J. Hehre,  Chao-Ping Hsu,  T.-C. Jagau,  Yousung Jung,  A. Klamt,  
 Jing Kong,  D. S. Lambrecht,  Xiangyuan Li,  WanZhen Liang,  N. J. Mayhall,  
 C. W. McCurdy,  J. B. Neaton,  T. Neudecker,  C. Ochsenfeld,  
 J. A. Parkhill,  R. Peverati,  V. A. Rassolov,  Haisheng Ren,  Yihan Shao,  
 L. V. Slipchenko,  R. P. Steele,  J. E. Subotnik,  A. J. W. Thom,  
 A. Tkatchenko,  D. G. Truhlar,  T. Van Voorhis,  Fan Wang,  
 T. A. Wesolowski,  K. B. Whaley,  H. L. Woodcock III,  P. M. Zimmerman,  
 S. Faraji,  P. M. W. Gill,  M. Head-Gordon,  J. M. Herbert,  A. I. Krylov

 Contributors to earlier versions of Q-Chem not listed above: 
 R. D. Adamson,  B. Austin,  R. Baer,  J. Baker,  G. J. O. Beran,  
 K. Brandhorst,  S. T. Brown,  E. F. C. Byrd,  Arup K. Chakraborty,  
 G. K. L. Chan,  Chun-Min Chang,  Yunqing Chen,  C.-L. Cheng,  
 Siu Hung Chien,  D. M. Chipman,  D. L. Crittenden,  H. Dachsel,  
 R. J. Doerksen,  A. D. Dutoi,  R. G. Edgar,  J. Fosso-Tande,  
 L. Fusti-Molnar,  D. Ghosh,  A. Ghysels,  A. Golubeva-Zadorozhnaya,  
 J. Gonthier,  M. S. Gordon,  S. R. Gwaltney,  G. Hawkins,  J. E. Herr,  
 A. Heyden,  S. Hirata,  E. G. Hohenstein,  G. Kedziora,  F. J. Keil,  
 C. Kelley,  Jihan Kim,  R. A. King,  R. Z. Khaliullin,  P. P. Korambath,  
 W. Kurlancheek,  A. Laurent,  A. M. Lee,  M. S. Lee,  S. V. Levchenko,  
 Ching Yeh Lin,  D. Liotard,  E. Livshits,  R. C. Lochan,  I. Lotan,  
 L. A. Martinez-Martinez,  P. E. Maslen,  N. Nair,  D. P. O'Neill,  
 D. Neuhauser,  E. Neuscamman,  C. M. Oana,  R. Olivares-Amaya,  R. Olson,  
 T. M. Perrine,  B. Peters,  P. A. Pieniazek,  A. Prociuk,  Y. M. Rhee,  
 J. Ritchie,  M. A. Rohrdanz,  E. Rosta,  N. J. Russ,  H. F. Schaefer III,  
 M. W. Schmidt,  N. E. Schultz,  S. Sharma,  N. Shenvi,  C. D. Sherrill,  
 A. C. Simmonett,  A. Sodt,  T. Stein,  D. Stuck,  K. S. Thanthiriwatte,  
 V. Vanovschi,  L. Vogt,  Tao Wang,  A. Warshel,  M. A. Watson,  
 C. F. Williams,  Q. Wu,  X. Xu,  Jun Yang,  W. Zhang,  Yan Zhao

   Please cite Q-Chem as follows:
  "Software for the frontiers of quantum chemistry:
   An overview of developments in the Q-Chem 5 package"
   J. Chem. Phys. 155, 084801 (2021)
   https://doi.org/10.1063/5.0055522 (open access)

 Q-Chem 6.0.2 for Intel X86 EM64T Linux

 Parts of Q-Chem use Armadillo 9.900.5 (Nocturnal Misbehaviour).
 http://arma.sourceforge.net/

 Q-Chem begins on Thu Aug  3 12:48:50 2023  

 Host: 
0

     Scratch files written to /data/scratch/C_FeABstar2_enol_ccL_2sextet_SkS_b3lypD3bj_ccpVDZ_pcmH2O_opt_220230803124849//
 Dec722 |scratch|qcdevops|jenkins|workspace|build_RNUM 8907   
 Processing $rem in /opt/qchem/6.0.1/config/preferences:
 Processing $rem in /home/sgardner/.qchemrc:
 Symmetry turned off for PCM/SM12/SMD calculation

 Checking the input file for inconsistencies... 	...done.

--------------------------------------------------------------
User input:
--------------------------------------------------------------
$molecule
-2 6
N   -2.2863981    1.6152600   -1.7120981
C   -4.3645343   -0.7888758    1.4393354
H   -4.3072067   -0.2632130    2.4081020
N   -3.1885570   -1.6220345    1.2497962
H   -3.4565155   -2.5964751    1.0880837
C   -5.6024486   -1.7395024    1.4887238
O   -6.7023981   -1.1861555    1.7268258
C   -1.9251439   -1.2155110    1.0729573
O   -1.6280475    0.0181145    1.2797626
C   -2.3518337    2.6308246   -0.8554163
C   -3.4011023    3.6924711   -0.9953464
H   -3.8594486    3.7176773   -1.9906772
H   -4.1908265    3.5219460   -0.2463334
H   -2.9356760    4.6646879   -0.7798916
C   -0.9550968   -2.2111787    0.6820328
H   -1.2610408   -3.2572221    0.7122740
C    0.3262804   -1.9004237    0.2825764
C    1.3343188   -3.0158728    0.0542984
H    0.8141724   -3.9671697   -0.1226290
H    1.9340419   -3.1190061    0.9742269
C    2.2391305   -2.7224455   -1.1384440
O    1.8286057   -2.8422601   -2.3027521
N    3.4781461   -2.3182869   -0.8158303
H    3.7945948   -2.2773450    0.1547026
C    5.8232840   -1.6823312   -0.8701348
O    6.8535415   -1.3578130   -1.5076130
N    2.3143406    2.1377904    0.2060578
C    2.0331272    1.9680958    1.4950028
C    3.1034619    2.1138135    2.5390200
H    2.6308084    2.0635239    3.5273596
H    3.8392420    1.2984744    2.4530360
H    3.6421235    3.0675854    2.4416500
C    3.6251352    2.3668156   -0.3961002
H    3.4622741    3.0853666   -1.2140425
H    4.2638654    2.8490924    0.3544975
C    4.2823301    1.0843052   -0.9139536
H    5.2941905    1.3520870   -1.2667095
H    4.4254977    0.3939644   -0.0673931
C    3.5021366    0.3931652   -2.0368529
H    2.5278618    0.0709348   -1.6435424
H    3.2853365    1.1341987   -2.8272110
C    4.2126509   -0.8006159   -2.6815138
H    3.5708612   -1.1799712   -3.4911325
H    5.1690718   -0.4907156   -3.1323681
C    4.5492128   -1.9668398   -1.7315229
H    4.7928718   -2.8405713   -2.3644831
C   -4.6295372    0.7636341   -2.1838979
H   -5.2127454    1.6244583   -1.8159170
H   -5.1806264    0.3801286   -3.0588548
C   -3.2784046    1.2454008   -2.7307268
H   -3.4242782    2.0970589   -3.4124105
H   -2.7878385    0.4456273   -3.2991814
C   -4.5625771   -0.3151840   -1.0871046
H   -3.6800270   -0.9556282   -1.2498071
H   -5.4417940   -0.9740008   -1.1809672
C   -4.5357530    0.2670043    0.3317935
H   -3.7322947    1.0067313    0.4260586
H   -5.4871973    0.7851392    0.5310797
O   -5.3835563   -2.9645532    1.2671358
O    5.7033059   -1.8088449    0.3832678
O    0.7900407   -0.6995441    0.0987761
Fe   -0.2387848    1.0134495    0.1387715
O   -1.2848063    0.7048848   -1.5174298
O   -1.5045683    2.6872379    0.0955322
O    1.2845737    1.9909671   -0.6733574
O    0.8349407    1.6646929    1.8204784
$end


$rem
BASIS  =  gen
DFT_D  =  D3_BJ
GUI  =  2
JOB_TYPE  =  Optimization
METHOD  =  B3LYP
SCF_CONVERGENCE  =  8
SOLVENT_METHOD  =  PCM
$end

$pcm
THEORY  CPCM
$end

$solvent
DIELECTRIC  78.39
$end

$van_der_waals
26   2.44
$end

!----------------------------------------------------------------------
! Basis Set Exchange
! Basis set: cc-pVDZ
!----------------------------------------------------------------------

$rem
BASIS GEN
PURECART 11
$end

$basis
H     0
S   4   1.00
1.301000D+01           1.968500D-02
1.962000D+00           1.379770D-01
4.446000D-01           4.781480D-01
1.220000D-01           5.012400D-01
S   1   1.00
1.220000D-01           1.000000D+00
P   1   1.00
7.270000D-01           1.0000000
****
C     0
S   9   1.00
6.665000D+03           6.920000D-04
1.000000D+03           5.329000D-03
2.280000D+02           2.707700D-02
6.471000D+01           1.017180D-01
2.106000D+01           2.747400D-01
7.495000D+00           4.485640D-01
2.797000D+00           2.850740D-01
5.215000D-01           1.520400D-02
1.596000D-01          -3.191000D-03
S   9   1.00
6.665000D+03          -1.460000D-04
1.000000D+03          -1.154000D-03
2.280000D+02          -5.725000D-03
6.471000D+01          -2.331200D-02
2.106000D+01          -6.395500D-02
7.495000D+00          -1.499810D-01
2.797000D+00          -1.272620D-01
5.215000D-01           5.445290D-01
1.596000D-01           5.804960D-01
S   1   1.00
1.596000D-01           1.000000D+00
P   4   1.00
9.439000D+00           3.810900D-02
2.002000D+00           2.094800D-01
5.456000D-01           5.085570D-01
1.517000D-01           4.688420D-01
P   1   1.00
1.517000D-01           1.000000D+00
D   1   1.00
5.500000D-01           1.0000000
****
N     0
S   9   1.00
9.046000D+03           7.000000D-04
1.357000D+03           5.389000D-03
3.093000D+02           2.740600D-02
8.773000D+01           1.032070D-01
2.856000D+01           2.787230D-01
1.021000D+01           4.485400D-01
3.838000D+00           2.782380D-01
7.466000D-01           1.544000D-02
2.248000D-01          -2.864000D-03
S   9   1.00
9.046000D+03          -1.530000D-04
1.357000D+03          -1.208000D-03
3.093000D+02          -5.992000D-03
8.773000D+01          -2.454400D-02
2.856000D+01          -6.745900D-02
1.021000D+01          -1.580780D-01
3.838000D+00          -1.218310D-01
7.466000D-01           5.490030D-01
2.248000D-01           5.788150D-01
S   1   1.00
2.248000D-01           1.000000D+00
P   4   1.00
1.355000D+01           3.991900D-02
2.917000D+00           2.171690D-01
7.973000D-01           5.103190D-01
2.185000D-01           4.622140D-01
P   1   1.00
2.185000D-01           1.000000D+00
D   1   1.00
8.170000D-01           1.0000000
****
O     0
S   9   1.00
1.172000D+04           7.100000D-04
1.759000D+03           5.470000D-03
4.008000D+02           2.783700D-02
1.137000D+02           1.048000D-01
3.703000D+01           2.830620D-01
1.327000D+01           4.487190D-01
5.025000D+00           2.709520D-01
1.013000D+00           1.545800D-02
3.023000D-01          -2.585000D-03
S   9   1.00
1.172000D+04          -1.600000D-04
1.759000D+03          -1.263000D-03
4.008000D+02          -6.267000D-03
1.137000D+02          -2.571600D-02
3.703000D+01          -7.092400D-02
1.327000D+01          -1.654110D-01
5.025000D+00          -1.169550D-01
1.013000D+00           5.573680D-01
3.023000D-01           5.727590D-01
S   1   1.00
3.023000D-01           1.000000D+00
P   4   1.00
1.770000D+01           4.301800D-02
3.854000D+00           2.289130D-01
1.046000D+00           5.087280D-01
2.753000D-01           4.605310D-01
P   1   1.00
2.753000D-01           1.000000D+00
D   1   1.00
1.185000D+00           1.0000000
****
Fe     0
S   20   1.00
4.316265D+06           8.048803D-06
6.463424D+05           6.258306D-05
1.470897D+05           3.290239D-04
4.166152D+04           1.387355D-03
1.359077D+04           5.023256D-03
4.905750D+03           1.610140D-02
1.912746D+03           4.590034D-02
7.926043D+02           1.136154D-01
3.448065D+02           2.283869D-01
1.558999D+02           3.221159D-01
7.223091D+01           2.383661D-01
3.272506D+01           7.404667D-02
1.566762D+01           9.214197D-02
7.503483D+00           9.339790D-02
3.312223D+00           1.573965D-02
1.558471D+00          -4.186682D-04
6.839140D-01           5.376318D-05
1.467570D-01          -3.816654D-05
7.058300D-02           4.319603D-05
3.144900D-02          -3.401019D-06
S   20   1.00
4.316265D+06          -4.155954D-06
6.463424D+05          -3.231401D-05
1.470897D+05          -1.699525D-04
4.166152D+04          -7.171369D-04
1.359077D+04          -2.603625D-03
4.905750D+03          -8.399109D-03
1.912746D+03          -2.434109D-02
7.926043D+02          -6.251948D-02
3.448065D+02          -1.365929D-01
1.558999D+02          -2.312707D-01
7.223091D+01          -2.383734D-01
3.272506D+01           3.123837D-02
1.566762D+01           5.086818D-01
7.503483D+00           4.987695D-01
3.312223D+00           9.033552D-02
1.558471D+00          -6.005337D-03
6.839140D-01           2.312454D-04
1.467570D-01          -5.643680D-04
7.058300D-02           4.992260D-04
3.144900D-02          -1.015293D-04
S   20   1.00
4.316265D+06           9.532178D-07
6.463424D+05           7.414605D-06
1.470897D+05           3.898393D-05
4.166152D+04           1.647152D-04
1.359077D+04           5.985980D-04
4.905750D+03           1.942390D-03
1.912746D+03           5.687237D-03
7.926043D+02           1.501329D-02
3.448065D+02           3.452455D-02
1.558999D+02           6.495820D-02
7.223091D+01           7.716194D-02
3.272506D+01          -1.873411D-02
1.566762D+01          -3.009185D-01
7.503483D+00          -4.554661D-01
3.312223D+00           1.286463D-01
1.558471D+00           7.183316D-01
6.839140D-01           4.051743D-01
1.467570D-01           2.168227D-02
7.058300D-02          -8.343566D-03
3.144900D-02           3.658979D-03
S   20   1.00
4.316265D+06          -2.063008D-07
6.463424D+05          -1.604169D-06
1.470897D+05          -8.438437D-06
4.166152D+04          -3.563151D-05
1.359077D+04          -1.295998D-04
4.905750D+03          -4.201534D-04
1.912746D+03          -1.231954D-03
7.926043D+02          -3.248922D-03
3.448065D+02          -7.493717D-03
1.558999D+02          -1.410102D-02
7.223091D+01          -1.691600D-02
3.272506D+01           4.218996D-03
1.566762D+01           6.833810D-02
7.503483D+00           1.098201D-01
3.312223D+00          -4.009005D-02
1.558471D+00          -2.174739D-01
6.839140D-01          -2.465135D-01
1.467570D-01           2.731435D-01
7.058300D-02           5.748321D-01
3.144900D-02           3.012713D-01
S   20   1.00
4.316265D+06          -4.009367D-07
6.463424D+05          -3.189255D-06
1.470897D+05          -1.623079D-05
4.166152D+04          -7.157920D-05
1.359077D+04          -2.463958D-04
4.905750D+03          -8.544907D-04
1.912746D+03          -2.307593D-03
7.926043D+02          -6.728292D-03
3.448065D+02          -1.366165D-02
1.558999D+02          -3.062240D-02
7.223091D+01          -2.631137D-02
3.272506D+01          -9.760183D-03
1.566762D+01           1.801906D-01
7.503483D+00           1.529634D-01
3.312223D+00           5.505413D-02
1.558471D+00          -9.551364D-01
6.839140D-01           2.586813D-01
1.467570D-01           1.834049D+00
7.058300D-02          -9.333240D-01
3.144900D-02          -6.981605D-01
S   1   1.00
3.144900D-02           1.000000D+00
P   16   1.00
1.774569D+04           4.100000D-05
4.200721D+03           3.690000D-04
1.364429D+03           2.129000D-03
5.220806D+02           9.369000D-03
2.214595D+02           3.309700D-02
1.009096D+02           9.443100D-02
4.840115D+01           2.080770D-01
2.398536D+01           3.323330D-01
1.218250D+01           3.329870D-01
6.242298D+00           1.568430D-01
3.110944D+00           2.154900D-02
1.509958D+00          -2.095000D-03
7.108450D-01          -1.739000D-03
2.731900D-01          -3.000000D-04
1.042330D-01           2.900000D-05
3.829100D-02          -1.100000D-05
P   16   1.00
1.774569D+04          -1.500000D-05
4.200721D+03          -1.300000D-04
1.364429D+03          -7.510000D-04
5.220806D+02          -3.329000D-03
2.214595D+02          -1.191200D-02
1.009096D+02          -3.493300D-02
4.840115D+01          -7.998900D-02
2.398536D+01          -1.346360D-01
1.218250D+01          -1.385980D-01
6.242298D+00           3.027800D-02
3.110944D+00           3.332160D-01
1.509958D+00           4.561530D-01
7.108450D-01           2.850510D-01
2.731900D-01           4.614400D-02
1.042330D-01          -3.249000D-03
3.829100D-02           1.357000D-03
P   16   1.00
1.774569D+04           5.000000D-06
4.200721D+03           4.200000D-05
1.364429D+03           2.410000D-04
5.220806D+02           1.085000D-03
2.214595D+02           3.831000D-03
1.009096D+02           1.142300D-02
4.840115D+01           2.579200D-02
2.398536D+01           4.481800D-02
1.218250D+01           4.459800D-02
6.242298D+00          -1.117700D-02
3.110944D+00          -1.381340D-01
1.509958D+00          -1.882850D-01
7.108450D-01          -1.073990D-01
2.731900D-01           4.448630D-01
1.042330D-01           6.402390D-01
3.829100D-02           6.445700D-02
P   16   1.00
1.774569D+04           3.000000D-06
4.200721D+03           2.900000D-05
1.364429D+03           1.650000D-04
5.220806D+02           7.340000D-04
2.214595D+02           2.626000D-03
1.009096D+02           7.725000D-03
4.840115D+01           1.773300D-02
2.398536D+01           3.005500D-02
1.218250D+01           3.109400D-02
6.242298D+00          -1.004800D-02
3.110944D+00          -8.830600D-02
1.509958D+00          -1.298240D-01
7.108450D-01          -7.693700D-02
2.731900D-01           2.126610D-01
1.042330D-01           5.730610D-01
3.829100D-02           3.696510D-01
P   1   1.00
3.829100D-02           1.000000D+00
D   8   1.00
1.133440D+02           3.530000D-03
3.364140D+01           2.578400D-02
1.233100D+01           9.911900D-02
4.994780D+00           2.390730D-01
2.072800D+00           3.571990D-01
8.307530D-01           3.621880D-01
3.091780D-01           2.364610D-01
1.001300D-01           6.011800D-02
D   8   1.00
1.133440D+02          -3.890000D-03
3.364140D+01          -2.844200D-02
1.233100D+01          -1.124290D-01
4.994780D+00          -2.742570D-01
2.072800D+00          -3.155460D-01
8.307530D-01           5.710900D-02
3.091780D-01           5.636040D-01
1.001300D-01           3.846370D-01
D   1   1.00
1.001300D-01           1.000000D+00
F   2   1.00
3.224300D+00           4.222490D-01
7.758000D-01           7.714680D-01
****
$end


--------------------------------------------------------------
 Adding empirical dispersion correction 
 ----------------------------------------------------------------
 Doing -D3(BJ) with
 s6  =   1.00000
 s8  =   1.98890
 a1  =   0.39810
 a2  =   4.42110
 -D3 energy without 3body term =     -0.1582700226 hartrees
 ----------------------------------------------------------------
             Standard Nuclear Orientation (Angstroms)
    I     Atom           X                Y                Z
 ----------------------------------------------------------------
    1      N      -2.2863981000     1.6152600000    -1.7120981000
    2      C      -4.3645343000    -0.7888758000     1.4393354000
    3      H      -4.3072067000    -0.2632130000     2.4081020000
    4      N      -3.1885570000    -1.6220345000     1.2497962000
    5      H      -3.4565155000    -2.5964751000     1.0880837000
    6      C      -5.6024486000    -1.7395024000     1.4887238000
    7      O      -6.7023981000    -1.1861555000     1.7268258000
    8      C      -1.9251439000    -1.2155110000     1.0729573000
    9      O      -1.6280475000     0.0181145000     1.2797626000
   10      C      -2.3518337000     2.6308246000    -0.8554163000
   11      C      -3.4011023000     3.6924711000    -0.9953464000
   12      H      -3.8594486000     3.7176773000    -1.9906772000
   13      H      -4.1908265000     3.5219460000    -0.2463334000
   14      H      -2.9356760000     4.6646879000    -0.7798916000
   15      C      -0.9550968000    -2.2111787000     0.6820328000
   16      H      -1.2610408000    -3.2572221000     0.7122740000
   17      C       0.3262804000    -1.9004237000     0.2825764000
   18      C       1.3343188000    -3.0158728000     0.0542984000
   19      H       0.8141724000    -3.9671697000    -0.1226290000
   20      H       1.9340419000    -3.1190061000     0.9742269000
   21      C       2.2391305000    -2.7224455000    -1.1384440000
   22      O       1.8286057000    -2.8422601000    -2.3027521000
   23      N       3.4781461000    -2.3182869000    -0.8158303000
   24      H       3.7945948000    -2.2773450000     0.1547026000
   25      C       5.8232840000    -1.6823312000    -0.8701348000
   26      O       6.8535415000    -1.3578130000    -1.5076130000
   27      N       2.3143406000     2.1377904000     0.2060578000
   28      C       2.0331272000     1.9680958000     1.4950028000
   29      C       3.1034619000     2.1138135000     2.5390200000
   30      H       2.6308084000     2.0635239000     3.5273596000
   31      H       3.8392420000     1.2984744000     2.4530360000
   32      H       3.6421235000     3.0675854000     2.4416500000
   33      C       3.6251352000     2.3668156000    -0.3961002000
   34      H       3.4622741000     3.0853666000    -1.2140425000
   35      H       4.2638654000     2.8490924000     0.3544975000
   36      C       4.2823301000     1.0843052000    -0.9139536000
   37      H       5.2941905000     1.3520870000    -1.2667095000
   38      H       4.4254977000     0.3939644000    -0.0673931000
   39      C       3.5021366000     0.3931652000    -2.0368529000
   40      H       2.5278618000     0.0709348000    -1.6435424000
   41      H       3.2853365000     1.1341987000    -2.8272110000
   42      C       4.2126509000    -0.8006159000    -2.6815138000
   43      H       3.5708612000    -1.1799712000    -3.4911325000
   44      H       5.1690718000    -0.4907156000    -3.1323681000
   45      C       4.5492128000    -1.9668398000    -1.7315229000
   46      H       4.7928718000    -2.8405713000    -2.3644831000
   47      C      -4.6295372000     0.7636341000    -2.1838979000
   48      H      -5.2127454000     1.6244583000    -1.8159170000
   49      H      -5.1806264000     0.3801286000    -3.0588548000
   50      C      -3.2784046000     1.2454008000    -2.7307268000
   51      H      -3.4242782000     2.0970589000    -3.4124105000
   52      H      -2.7878385000     0.4456273000    -3.2991814000
   53      C      -4.5625771000    -0.3151840000    -1.0871046000
   54      H      -3.6800270000    -0.9556282000    -1.2498071000
   55      H      -5.4417940000    -0.9740008000    -1.1809672000
   56      C      -4.5357530000     0.2670043000     0.3317935000
   57      H      -3.7322947000     1.0067313000     0.4260586000
   58      H      -5.4871973000     0.7851392000     0.5310797000
   59      O      -5.3835563000    -2.9645532000     1.2671358000
   60      O       5.7033059000    -1.8088449000     0.3832678000
   61      O       0.7900407000    -0.6995441000     0.0987761000
   62      Fe     -0.2387848000     1.0134495000     0.1387715000
   63      O      -1.2848063000     0.7048848000    -1.5174298000
   64      O      -1.5045683000     2.6872379000     0.0955322000
   65      O       1.2845737000     1.9909671000    -0.6733574000
   66      O       0.8349407000     1.6646929000     1.8204784000
 ----------------------------------------------------------------
 Nuclear Repulsion Energy =        5303.38568472 hartrees
 There are      152 alpha and      147 beta electrons
 Requested basis set is non-standard
 There are 318 shells and 692 basis functions

 Total QAlloc Memory Limit   8000 MB
 Mega-Array Size       188 MB
 MEM_STATIC part       192 MB

 -----------------------------------------------------------------------
                STARTING GEOMETRY OPTIMIZER USING LIBOPT3
                by Peter F. McLaughlin, Yu Zhang, Evgeny Epifanovsky
 -----------------------------------------------------------------------

              Initial Energy and Gradient Calculation
   -- Checking Topology for Ill-Behaving Coordinates --

 -------------------------------------------
   Coordinate       |  Removed | Additions 
 -------------------------------------------
	Bonds                     0          0
	Angles                    3          0
	Torsions                  6          6
	Co-Linear Type5s          0          6
	Co-Linear Type6s          0          6
 -------------------------------------------

 ** Ill-Behaving Topology Definitions (No action needed.) **

  Ill-Defined Angles Removed: 
   9  62  65,  61  62  64,  63  62  66

  Ill-Defined Torsions Removed: 
   1  63  62  66,   8   9  62  65,   9  62  65  27,  17  61  62  64,  61  62  64  10
  63  62  66  28

     Done Checking Topology
 Adding empirical dispersion correction 
 ----------------------------------------------------------------
 Doing -D3(BJ) with
 s6  =   1.00000
 s8  =   1.98890
 a1  =   0.39810
 a2  =   4.42110
 -D3 energy without 3body term =     -0.1582700226 hartrees
 ----------------------------------------------------------------
             Standard Nuclear Orientation (Angstroms)
    I     Atom           X                Y                Z
 ----------------------------------------------------------------
    1      N      -2.2863981000     1.6152600000    -1.7120981000
    2      C      -4.3645343000    -0.7888758000     1.4393354000
    3      H      -4.3072067000    -0.2632130000     2.4081020000
    4      N      -3.1885570000    -1.6220345000     1.2497962000
    5      H      -3.4565155000    -2.5964751000     1.0880837000
    6      C      -5.6024486000    -1.7395024000     1.4887238000
    7      O      -6.7023981000    -1.1861555000     1.7268258000
    8      C      -1.9251439000    -1.2155110000     1.0729573000
    9      O      -1.6280475000     0.0181145000     1.2797626000
   10      C      -2.3518337000     2.6308246000    -0.8554163000
   11      C      -3.4011023000     3.6924711000    -0.9953464000
   12      H      -3.8594486000     3.7176773000    -1.9906772000
   13      H      -4.1908265000     3.5219460000    -0.2463334000
   14      H      -2.9356760000     4.6646879000    -0.7798916000
   15      C      -0.9550968000    -2.2111787000     0.6820328000
   16      H      -1.2610408000    -3.2572221000     0.7122740000
   17      C       0.3262804000    -1.9004237000     0.2825764000
   18      C       1.3343188000    -3.0158728000     0.0542984000
   19      H       0.8141724000    -3.9671697000    -0.1226290000
   20      H       1.9340419000    -3.1190061000     0.9742269000
   21      C       2.2391305000    -2.7224455000    -1.1384440000
   22      O       1.8286057000    -2.8422601000    -2.3027521000
   23      N       3.4781461000    -2.3182869000    -0.8158303000
   24      H       3.7945948000    -2.2773450000     0.1547026000
   25      C       5.8232840000    -1.6823312000    -0.8701348000
   26      O       6.8535415000    -1.3578130000    -1.5076130000
   27      N       2.3143406000     2.1377904000     0.2060578000
   28      C       2.0331272000     1.9680958000     1.4950028000
   29      C       3.1034619000     2.1138135000     2.5390200000
   30      H       2.6308084000     2.0635239000     3.5273596000
   31      H       3.8392420000     1.2984744000     2.4530360000
   32      H       3.6421235000     3.0675854000     2.4416500000
   33      C       3.6251352000     2.3668156000    -0.3961002000
   34      H       3.4622741000     3.0853666000    -1.2140425000
   35      H       4.2638654000     2.8490924000     0.3544975000
   36      C       4.2823301000     1.0843052000    -0.9139536000
   37      H       5.2941905000     1.3520870000    -1.2667095000
   38      H       4.4254977000     0.3939644000    -0.0673931000
   39      C       3.5021366000     0.3931652000    -2.0368529000
   40      H       2.5278618000     0.0709348000    -1.6435424000
   41      H       3.2853365000     1.1341987000    -2.8272110000
   42      C       4.2126509000    -0.8006159000    -2.6815138000
   43      H       3.5708612000    -1.1799712000    -3.4911325000
   44      H       5.1690718000    -0.4907156000    -3.1323681000
   45      C       4.5492128000    -1.9668398000    -1.7315229000
   46      H       4.7928718000    -2.8405713000    -2.3644831000
   47      C      -4.6295372000     0.7636341000    -2.1838979000
   48      H      -5.2127454000     1.6244583000    -1.8159170000
   49      H      -5.1806264000     0.3801286000    -3.0588548000
   50      C      -3.2784046000     1.2454008000    -2.7307268000
   51      H      -3.4242782000     2.0970589000    -3.4124105000
   52      H      -2.7878385000     0.4456273000    -3.2991814000
   53      C      -4.5625771000    -0.3151840000    -1.0871046000
   54      H      -3.6800270000    -0.9556282000    -1.2498071000
   55      H      -5.4417940000    -0.9740008000    -1.1809672000
   56      C      -4.5357530000     0.2670043000     0.3317935000
   57      H      -3.7322947000     1.0067313000     0.4260586000
   58      H      -5.4871973000     0.7851392000     0.5310797000
   59      O      -5.3835563000    -2.9645532000     1.2671358000
   60      O       5.7033059000    -1.8088449000     0.3832678000
   61      O       0.7900407000    -0.6995441000     0.0987761000
   62      Fe     -0.2387848000     1.0134495000     0.1387715000
   63      O      -1.2848063000     0.7048848000    -1.5174298000
   64      O      -1.5045683000     2.6872379000     0.0955322000
   65      O       1.2845737000     1.9909671000    -0.6733574000
   66      O       0.8349407000     1.6646929000     1.8204784000
 ----------------------------------------------------------------
 Nuclear Repulsion Energy =        5303.38568472 hartrees
 There are      152 alpha and      147 beta electrons
 Using C-PCM dielectric factor f(eps) = (eps-1)/eps = 0.987243
No default van der Waals radius is available for Z = 26
	Found R = 2.4400 A in the $van_der_waals section
 Discretize the solute cavity surface with Lebedev spheres
	Using 110 Lebedev grid points for each H atom
	Using 194 Lebedev grid points for other atoms
	Atomic van der Waals radii (Bondi set) will be scaled by 1.20
 Using smooth SwiG surface discretization
 Remove points where switching function is < 1.0e-08
 Keep 3904 surface tesserae and discard 6464 interior tesserae
 Molecular Surface Area = 499.714 Angst**2

 Requested basis set is non-standard
 There are 318 shells and 692 basis functions
 A cutoff of  1.0D-12 yielded  39612 shell pairs
 There are    172762 function pairs (    191963 Cartesian)
 Smallest overlap matrix eigenvalue = 2.63E-04

 Scale SEOQF with 1.000000e-02/1.000000e-01/1.000000e-01

 Standard Electronic Orientation quadrupole field applied
 Nucleus-field energy     =     0.0000000238 hartrees
 ================ Generating on-the-fly SAD Guess ================
 Attempting to make child job directory: /data/scratch/C_FeABstar2_enol_ccL_2sextet_SkS_b3lypD3bj_ccpVDZ_pcmH2O_opt_220230803124849//Frg1/
 Attempting to make child job directory: /data/scratch/C_FeABstar2_enol_ccL_2sextet_SkS_b3lypD3bj_ccpVDZ_pcmH2O_opt_220230803124849//Frg2/
 Attempting to make child job directory: /data/scratch/C_FeABstar2_enol_ccL_2sextet_SkS_b3lypD3bj_ccpVDZ_pcmH2O_opt_220230803124849//Frg3/
 Attempting to make child job directory: /data/scratch/C_FeABstar2_enol_ccL_2sextet_SkS_b3lypD3bj_ccpVDZ_pcmH2O_opt_220230803124849//Frg4/
 Attempting to make child job directory: /data/scratch/C_FeABstar2_enol_ccL_2sextet_SkS_b3lypD3bj_ccpVDZ_pcmH2O_opt_220230803124849//Frg5/
 Creating input file /data/scratch/C_FeABstar2_enol_ccL_2sextet_SkS_b3lypD3bj_ccpVDZ_pcmH2O_opt_220230803124849/Frg1.input
 using default PutDataFrgm: nothing
 calling putenv with: QCSCRATCH=/data/scratch/C_FeABstar2_enol_ccL_2sextet_SkS_b3lypD3bj_ccpVDZ_pcmH2O_opt_220230803124849/ 
 Spawning Job For Fragment 0
 Done Job For Fragment 0
 calling putenv with: QCSCRATCH=/data/scratch 
 calling putenv with: QCTHREADS=20 
 Creating input file /data/scratch/C_FeABstar2_enol_ccL_2sextet_SkS_b3lypD3bj_ccpVDZ_pcmH2O_opt_220230803124849/Frg2.input
 using default PutDataFrgm: nothing
 calling putenv with: QCSCRATCH=/data/scratch/C_FeABstar2_enol_ccL_2sextet_SkS_b3lypD3bj_ccpVDZ_pcmH2O_opt_220230803124849/ 
 Spawning Job For Fragment 1
 Done Job For Fragment 1
 calling putenv with: QCSCRATCH=/data/scratch 
 calling putenv with: QCTHREADS=20 
 Creating input file /data/scratch/C_FeABstar2_enol_ccL_2sextet_SkS_b3lypD3bj_ccpVDZ_pcmH2O_opt_220230803124849/Frg3.input
 using default PutDataFrgm: nothing
 calling putenv with: QCSCRATCH=/data/scratch/C_FeABstar2_enol_ccL_2sextet_SkS_b3lypD3bj_ccpVDZ_pcmH2O_opt_220230803124849/ 
 Spawning Job For Fragment 2
 Done Job For Fragment 2
 calling putenv with: QCSCRATCH=/data/scratch 
 calling putenv with: QCTHREADS=20 
 Creating input file /data/scratch/C_FeABstar2_enol_ccL_2sextet_SkS_b3lypD3bj_ccpVDZ_pcmH2O_opt_220230803124849/Frg4.input
 using default PutDataFrgm: nothing
 calling putenv with: QCSCRATCH=/data/scratch/C_FeABstar2_enol_ccL_2sextet_SkS_b3lypD3bj_ccpVDZ_pcmH2O_opt_220230803124849/ 
 Spawning Job For Fragment 3
 Done Job For Fragment 3
 calling putenv with: QCSCRATCH=/data/scratch 
 calling putenv with: QCTHREADS=20 
 Creating input file /data/scratch/C_FeABstar2_enol_ccL_2sextet_SkS_b3lypD3bj_ccpVDZ_pcmH2O_opt_220230803124849/Frg5.input
 using default PutDataFrgm: nothing
 calling putenv with: QCSCRATCH=/data/scratch/C_FeABstar2_enol_ccL_2sextet_SkS_b3lypD3bj_ccpVDZ_pcmH2O_opt_220230803124849/ 
 Spawning Job For Fragment 4
 Done Job For Fragment 4
 calling putenv with: QCSCRATCH=/data/scratch 
 calling putenv with: QCTHREADS=20 
 Time for running child jobs:  CPU 0.02 s  wall 49.75 s
 ============= Method Specific SAD Guess Constructed =============
 Guess from on-the-fly superposition of atomic densities
 Warning: Energy on first SCF cycle will be non-variational

 -----------------------------------------------------------------------
  General SCF calculation program by
  Eric Jon Sundstrom, Paul Horn, Yuezhi Mao, Dmitri Zuev, Alec White,
  David Stuck, Shaama M.S., Shane Yost, Joonho Lee, David Small,
  Daniel Levine, Susi Lehtola, Hugh Burton, Evgeny Epifanovsky,
  Bang C. Huynh
 -----------------------------------------------------------------------
 Exchange:     0.2000 Hartree-Fock + 0.0800 Slater + 0.7200 B88
 Correlation:  0.1900 VWN1RPA + 0.8100 LYP
 Using SG-1 standard quadrature grid
 Dispersion:   Grimme D3
 using 20 threads for integral computing
 -------------------------------------------------------
 OpenMP Integral computing Module                
 Release: version 1.0, May 2013, Q-Chem Inc. Pittsburgh 
 -------------------------------------------------------
 C-PCM solvent model [f = (eps-1)/eps], solve by matrix inversion
 A unrestricted SCF calculation will be
 performed using DIIS
 SCF converges when DIIS error is below 1.0e-08
 ---------------------------------------
  Cycle       Energy         DIIS error
 ---------------------------------------
    1   -3142.2303638782      1.65e-02  
    2   -3127.6021383377      2.19e-03  
    3   -3125.2258293184      4.49e-03  
    4   -3127.4125006362      2.71e-03  
    5   -3128.6292132752      4.04e-04  
    6   -3128.6362687413      4.02e-04  
    7   -3128.6668242746      9.52e-05  
    8   -3128.6678594478      7.86e-05  
    9   -3128.6691473619      2.27e-05  
   10   -3128.6692669849      7.73e-06  
   11   -3128.6692932178      5.36e-06  
   12   -3128.6693025393      2.26e-06  
   13   -3128.6693041638      1.45e-06  
   14   -3128.6693048684      6.65e-07  
   15   -3128.6693051114      3.36e-07  
   16   -3128.6693051505      1.73e-07  
   17   -3128.6693051584      7.04e-08  
   18   -3128.6693051599      3.77e-08  
   19   -3128.6693051603      1.79e-08  
   20   -3128.6693051603      5.48e-09  Convergence criterion met
 ---------------------------------------
 SCF time:   CPU 21169.91s  wall 1479.00s 
<S^2> =          8.759030396

************** Final PCM Free Energy Summary **************
 G_electrostatic  =      -0.27308185 hartree =    -171.36144523 kcal/mol
 G_cavitation     =       0.00000000 hartree =       0.00000000 kcal/mol
 G_dispersion     =       0.00000000 hartree =       0.00000000 kcal/mol
 G_repulsion      =       0.00000000 hartree =       0.00000000 kcal/mol
 --------------------------------------------------
 Non-electrostatic Free Energy =       0.00000000 hartree =       0.00000000 kcal/mol
 Total                         =      -0.27308185 hartree =    -171.36144523 kcal/mol
 --------------------------------------------------
 SCF Energy (H0 + V/2)                       =   -3128.66930516 
 Solute Internal Energy (H0)                 =   -3128.39622331 
 Total Free Energy (H0 + V/2 + non-elec)     =   -3128.66930516 hartree
                                             = -1963269.62061507 kcal/mol
***********************************************************

 SCF   energy in the final basis set =    -3128.6693051603
 Total energy in the final basis set =    -3128.6693051603
 
 --------------------------------------------------------------
 
                    Orbital Energies (a.u.)
 --------------------------------------------------------------
 
 Alpha MOs
 -- Occupied --
******** -30.1423 -25.9962 -25.9939 -25.9922 -19.1402 -19.1357 -19.1341
-19.1338 -19.1227 -19.1215 -19.0917 -19.0637 -19.0629 -19.0566 -19.0562
-14.4146 -14.4120 -14.3374 -14.3287 -10.2908 -10.2897 -10.2847 -10.2719
-10.2515 -10.2499 -10.2490 -10.2243 -10.2209 -10.2022 -10.1982 -10.1941
-10.1936 -10.1857 -10.1836 -10.1745 -10.1738 -10.1686 -10.1653 -10.1634
-10.1606  -3.6248  -2.4024  -2.3985  -2.3946  -1.0890  -1.0867  -1.0350
 -1.0188  -1.0166  -1.0148  -1.0086  -1.0031  -1.0015  -0.9218  -0.9181
 -0.9064  -0.8986  -0.8609  -0.8571  -0.7927  -0.7893  -0.7734  -0.7573
 -0.7470  -0.7321  -0.7238  -0.7142  -0.6913  -0.6780  -0.6412  -0.6331
 -0.5993  -0.5860  -0.5672  -0.5582  -0.5492  -0.5432  -0.5379  -0.5257
 -0.5149  -0.5116  -0.5085  -0.5023  -0.4988  -0.4888  -0.4848  -0.4765
 -0.4720  -0.4691  -0.4644  -0.4570  -0.4495  -0.4470  -0.4416  -0.4401
 -0.4335  -0.4319  -0.4279  -0.4246  -0.4210  -0.4187  -0.4170  -0.4162
 -0.4105  -0.4067  -0.4052  -0.4017  -0.4010  -0.3969  -0.3946  -0.3891
 -0.3842  -0.3812  -0.3799  -0.3798  -0.3790  -0.3746  -0.3682  -0.3669
 -0.3625  -0.3582  -0.3560  -0.3520  -0.3465  -0.3437  -0.3330  -0.3285
 -0.3249  -0.3224  -0.3216  -0.3175  -0.3143  -0.3088  -0.3071  -0.2979
 -0.2948  -0.2788  -0.2603  -0.2445  -0.2432  -0.2410  -0.2363  -0.2290
 -0.2257  -0.2217  -0.2200  -0.2137  -0.2122  -0.2112  -0.2100  -0.2074
 -- Virtual --
 -0.0137   0.0092   0.0133   0.0314   0.0350   0.0516   0.0564   0.0632
  0.0706   0.0760   0.0808   0.0875   0.0907   0.0913   0.0991   0.1039
  0.1056   0.1068   0.1124   0.1162   0.1183   0.1233   0.1309   0.1332
  0.1356   0.1427   0.1447   0.1460   0.1537   0.1555   0.1642   0.1676
  0.1708   0.1730   0.1747   0.1798   0.1804   0.1837   0.1894   0.1904
  0.1926   0.2038   0.2061   0.2080   0.2140   0.2162   0.2221   0.2331
  0.2400   0.2423   0.2476   0.2523   0.2559   0.2602   0.2624   0.2658
  0.2737   0.2746   0.2768   0.2854   0.2923   0.3012   0.3026   0.3152
  0.3199   0.3215   0.3342   0.3465   0.3567   0.3631   0.3653   0.3692
  0.3765   0.3832   0.3864   0.3951   0.3982   0.4060   0.4121   0.4226
  0.4234   0.4292   0.4359   0.4401   0.4413   0.4494   0.4554   0.4603
  0.4649   0.4701   0.4712   0.4749   0.4854   0.4900   0.4951   0.4972
  0.5072   0.5120   0.5141   0.5243   0.5248   0.5329   0.5387   0.5458
  0.5499   0.5536   0.5550   0.5587   0.5600   0.5673   0.5718   0.5767
  0.5800   0.5815   0.5838   0.5893   0.5977   0.5986   0.6023   0.6131
  0.6137   0.6160   0.6194   0.6227   0.6287   0.6299   0.6342   0.6378
  0.6390   0.6411   0.6456   0.6461   0.6531   0.6546   0.6580   0.6618
  0.6656   0.6677   0.6716   0.6735   0.6763   0.6792   0.6852   0.6878
  0.6888   0.6948   0.6985   0.6998   0.7016   0.7049   0.7095   0.7138
  0.7149   0.7171   0.7203   0.7279   0.7313   0.7350   0.7366   0.7451
  0.7564   0.7584   0.7605   0.7670   0.7737   0.7767   0.7818   0.7867
  0.7995   0.8022   0.8045   0.8143   0.8167   0.8274   0.8340   0.8440
  0.8476   0.8547   0.8627   0.8759   0.8823   0.8865   0.8923   0.8981
  0.9047   0.9144   0.9223   0.9342   0.9381   0.9412   0.9448   0.9591
  0.9709   0.9837   0.9906   1.0053   1.0085   1.0154   1.0211   1.0253
  1.0293   1.0351   1.0449   1.0459   1.0504   1.0610   1.0617   1.0720
  1.0779   1.0861   1.0919   1.0998   1.1045   1.1087   1.1106   1.1202
  1.1233   1.1291   1.1310   1.1439   1.1459   1.1554   1.1624   1.1685
  1.1725   1.1774   1.1826   1.1845   1.1930   1.2022   1.2064   1.2093
  1.2134   1.2219   1.2257   1.2315   1.2377   1.2432   1.2543   1.2592
  1.2677   1.2727   1.2755   1.2766   1.2793   1.2896   1.2949   1.3017
  1.3074   1.3101   1.3173   1.3259   1.3327   1.3363   1.3400   1.3460
  1.3553   1.3598   1.3713   1.3794   1.3842   1.3905   1.3980   1.4026
  1.4076   1.4137   1.4202   1.4283   1.4350   1.4433   1.4515   1.4558
  1.4637   1.4687   1.4787   1.4877   1.4941   1.4984   1.5079   1.5153
  1.5181   1.5251   1.5355   1.5377   1.5431   1.5508   1.5581   1.5637
  1.5675   1.5718   1.5755   1.5849   1.5902   1.5919   1.5993   1.6034
  1.6092   1.6128   1.6158   1.6223   1.6283   1.6359   1.6426   1.6445
  1.6472   1.6508   1.6530   1.6540   1.6595   1.6628   1.6689   1.6708
  1.6801   1.6828   1.6861   1.6942   1.6959   1.6989   1.7049   1.7075
  1.7101   1.7169   1.7228   1.7263   1.7300   1.7314   1.7338   1.7398
  1.7425   1.7485   1.7551   1.7585   1.7641   1.7679   1.7684   1.7717
  1.7758   1.7828   1.7858   1.7900   1.7935   1.7957   1.8007   1.8050
  1.8122   1.8142   1.8218   1.8277   1.8315   1.8355   1.8383   1.8453
  1.8472   1.8526   1.8566   1.8604   1.8654   1.8737   1.8811   1.8877
  1.8897   1.9014   1.9065   1.9097   1.9123   1.9160   1.9264   1.9315
  1.9451   1.9486   1.9566   1.9640   1.9677   1.9772   1.9791   1.9885
  1.9957   2.0030   2.0061   2.0139   2.0196   2.0243   2.0356   2.0414
  2.0473   2.0522   2.0609   2.0702   2.0761   2.0873   2.0923   2.0966
  2.1061   2.1109   2.1177   2.1316   2.1367   2.1448   2.1523   2.1664
  2.1690   2.1770   2.1781   2.1845   2.1905   2.1946   2.2033   2.2140
  2.2194   2.2265   2.2352   2.2410   2.2478   2.2545   2.2605   2.2645
  2.2695   2.2810   2.2893   2.3005   2.3024   2.3089   2.3151   2.3212
  2.3235   2.3329   2.3349   2.3461   2.3506   2.3556   2.3663   2.3763
  2.3789   2.3826   2.3927   2.4100   2.4116   2.4185   2.4280   2.4400
  2.4441   2.4539   2.4584   2.4627   2.4676   2.4760   2.4835   2.4858
  2.5030   2.5068   2.5151   2.5213   2.5318   2.5364   2.5458   2.5498
  2.5546   2.5650   2.5751   2.5861   2.6055   2.6189   2.6474   2.6505
  2.6592   2.6631   2.6742   2.6746   2.6797   2.6889   2.6981   2.7055
  2.7124   2.7151   2.7192   2.7246   2.7297   2.7315   2.7397   2.7428
  2.7490   2.7590   2.7633   2.7727   2.7832   2.7861   2.7911   2.8044
  2.8214   2.8295   2.8406   2.8549   2.8738   2.8916   2.9180   2.9232
  2.9311   2.9349   2.9540   2.9668   2.9803   2.9975   3.0062   3.0137
  3.0200   3.0363   3.0566   3.0772   3.0807   3.1035   3.1109   3.1223
  3.1266   3.1474   3.1501   3.2108   3.2136   3.2444   3.2453   3.3133
  3.3937   3.3983   3.4038   3.4079   3.4144   3.4315   3.4369   3.4610
  3.4756   3.5004   3.5066   3.5132   3.5143   3.5381   3.5412   3.5738
  3.5820   3.5971   3.7220   3.7340
 
 Beta MOs
 -- Occupied --
******** -30.0496 -25.9181 -25.9166 -25.9158 -19.1344 -19.1310 -19.1307
-19.1299 -19.1186 -19.1186 -19.0917 -19.0637 -19.0629 -19.0566 -19.0562
-14.4142 -14.4116 -14.3370 -14.3287 -10.2908 -10.2897 -10.2847 -10.2719
-10.2517 -10.2499 -10.2490 -10.2242 -10.2208 -10.2022 -10.1982 -10.1940
-10.1935 -10.1855 -10.1836 -10.1745 -10.1738 -10.1685 -10.1653 -10.1634
-10.1601  -3.4088  -2.1729  -2.1705  -2.1695  -1.0832  -1.0809  -1.0303
 -1.0175  -1.0095  -1.0077  -1.0042  -1.0023  -1.0003  -0.9211  -0.9181
 -0.9053  -0.8986  -0.8553  -0.8513  -0.7921  -0.7888  -0.7721  -0.7566
 -0.7462  -0.7308  -0.7226  -0.7132  -0.6908  -0.6775  -0.6403  -0.6324
 -0.5978  -0.5847  -0.5648  -0.5554  -0.5464  -0.5359  -0.5341  -0.5177
 -0.5109  -0.5064  -0.5014  -0.4956  -0.4941  -0.4842  -0.4820  -0.4724
 -0.4676  -0.4666  -0.4623  -0.4495  -0.4453  -0.4390  -0.4382  -0.4377
 -0.4323  -0.4259  -0.4201  -0.4143  -0.4109  -0.4096  -0.4073  -0.4019
 -0.4002  -0.3969  -0.3968  -0.3943  -0.3900  -0.3856  -0.3823  -0.3799
 -0.3773  -0.3687  -0.3676  -0.3639  -0.3579  -0.3566  -0.3538  -0.3505
 -0.3461  -0.3326  -0.3270  -0.3245  -0.3226  -0.3184  -0.3180  -0.3150
 -0.3084  -0.3074  -0.3045  -0.2965  -0.2914  -0.2873  -0.2633  -0.2588
 -0.2429  -0.2408  -0.2295  -0.2258  -0.2215  -0.2200  -0.2123  -0.2120
 -0.2107  -0.2090  -0.2070
 -- Virtual --
 -0.0903  -0.0850  -0.0828  -0.0360  -0.0347  -0.0058   0.0141   0.0189
  0.0317   0.0364   0.0521   0.0571   0.0638   0.0708   0.0768   0.0814
  0.0880   0.0920   0.0932   0.1002   0.1048   0.1066   0.1077   0.1136
  0.1166   0.1189   0.1237   0.1313   0.1341   0.1359   0.1429   0.1453
  0.1467   0.1545   0.1570   0.1647   0.1684   0.1721   0.1740   0.1755
  0.1807   0.1816   0.1844   0.1905   0.1924   0.1943   0.2055   0.2071
  0.2106   0.2163   0.2182   0.2227   0.2355   0.2415   0.2441   0.2492
  0.2532   0.2576   0.2622   0.2632   0.2700   0.2743   0.2777   0.2792
  0.2862   0.2970   0.3022   0.3056   0.3227   0.3249   0.3280   0.3383
  0.3513   0.3598   0.3663   0.3707   0.3748   0.3806   0.3860   0.3918
  0.3974   0.4029   0.4087   0.4140   0.4239   0.4257   0.4302   0.4366
  0.4417   0.4423   0.4502   0.4560   0.4615   0.4669   0.4706   0.4729
  0.4761   0.4862   0.4913   0.4968   0.4980   0.5097   0.5131   0.5150
  0.5251   0.5264   0.5341   0.5398   0.5467   0.5511   0.5544   0.5562
  0.5591   0.5611   0.5682   0.5729   0.5778   0.5819   0.5827   0.5842
  0.5899   0.5982   0.5993   0.6031   0.6141   0.6147   0.6166   0.6209
  0.6233   0.6296   0.6309   0.6353   0.6385   0.6399   0.6418   0.6461
  0.6467   0.6544   0.6551   0.6589   0.6623   0.6665   0.6684   0.6721
  0.6739   0.6776   0.6803   0.6859   0.6882   0.6898   0.6967   0.6992
  0.7005   0.7024   0.7059   0.7110   0.7155   0.7158   0.7180   0.7215
  0.7289   0.7351   0.7357   0.7373   0.7462   0.7600   0.7614   0.7622
  0.7731   0.7771   0.7784   0.7854   0.7918   0.8013   0.8042   0.8087
  0.8160   0.8226   0.8299   0.8408   0.8491   0.8519   0.8577   0.8653
  0.8789   0.8872   0.8918   0.8948   0.9023   0.9066   0.9165   0.9243
  0.9359   0.9395   0.9472   0.9480   0.9613   0.9724   0.9858   0.9920
  1.0067   1.0098   1.0175   1.0227   1.0274   1.0316   1.0367   1.0461
  1.0475   1.0514   1.0618   1.0667   1.0753   1.0792   1.0905   1.0946
  1.1016   1.1068   1.1118   1.1119   1.1222   1.1271   1.1312   1.1328
  1.1463   1.1483   1.1578   1.1644   1.1727   1.1740   1.1787   1.1852
  1.1869   1.1946   1.2063   1.2095   1.2120   1.2176   1.2262   1.2299
  1.2358   1.2416   1.2458   1.2611   1.2637   1.2708   1.2758   1.2788
  1.2816   1.2839   1.2928   1.3011   1.3065   1.3097   1.3150   1.3217
  1.3306   1.3378   1.3387   1.3450   1.3516   1.3623   1.3640   1.3763
  1.3820   1.3859   1.3963   1.4008   1.4092   1.4139   1.4179   1.4258
  1.4331   1.4397   1.4488   1.4576   1.4636   1.4733   1.4754   1.4835
  1.4947   1.4965   1.5050   1.5143   1.5180   1.5203   1.5320   1.5408
  1.5439   1.5508   1.5599   1.5677   1.5685   1.5711   1.5767   1.5833
  1.5923   1.5972   1.6010   1.6057   1.6097   1.6131   1.6183   1.6194
  1.6243   1.6306   1.6379   1.6440   1.6458   1.6499   1.6526   1.6551
  1.6554   1.6630   1.6655   1.6720   1.6770   1.6822   1.6884   1.6900
  1.6964   1.7017   1.7034   1.7067   1.7122   1.7143   1.7209   1.7275
  1.7281   1.7313   1.7340   1.7356   1.7427   1.7480   1.7501   1.7567
  1.7624   1.7663   1.7696   1.7715   1.7743   1.7778   1.7840   1.7893
  1.7923   1.7956   1.7977   1.8029   1.8072   1.8132   1.8163   1.8234
  1.8304   1.8334   1.8364   1.8407   1.8472   1.8521   1.8550   1.8584
  1.8625   1.8676   1.8781   1.8843   1.8890   1.8925   1.9032   1.9099
  1.9123   1.9165   1.9184   1.9294   1.9337   1.9489   1.9537   1.9594
  1.9661   1.9687   1.9814   1.9826   1.9907   1.9985   2.0044   2.0084
  2.0164   2.0236   2.0255   2.0383   2.0427   2.0495   2.0540   2.0632
  2.0750   2.0805   2.0907   2.0951   2.0990   2.1082   2.1125   2.1196
  2.1333   2.1386   2.1459   2.1540   2.1684   2.1714   2.1784   2.1799
  2.1858   2.1920   2.1979   2.2061   2.2152   2.2209   2.2274   2.2362
  2.2430   2.2511   2.2557   2.2618   2.2665   2.2721   2.2825   2.2905
  2.3039   2.3045   2.3119   2.3163   2.3232   2.3254   2.3363   2.3396
  2.3471   2.3538   2.3567   2.3692   2.3776   2.3807   2.3858   2.3970
  2.4132   2.4139   2.4217   2.4289   2.4415   2.4454   2.4570   2.4608
  2.4680   2.4719   2.4787   2.4845   2.4871   2.5042   2.5083   2.5157
  2.5227   2.5345   2.5377   2.5475   2.5519   2.5578   2.5675   2.5783
  2.5878   2.6086   2.6207   2.6507   2.6528   2.6628   2.6722   2.6757
  2.6783   2.6899   2.6960   2.7058   2.7103   2.7175   2.7200   2.7250
  2.7307   2.7347   2.7389   2.7441   2.7486   2.7579   2.7606   2.7655
  2.7739   2.7880   2.7942   2.7963   2.8142   2.8299   2.8405   2.8436
  2.8606   2.8829   2.9010   2.9210   2.9330   2.9403   2.9434   2.9925
  2.9998   3.0061   3.0136   3.0293   3.0501   3.0600   3.0804   3.0863
  3.0893   3.1033   3.1085   3.1313   3.1596   3.1777   3.1982   3.2110
  3.2135   3.2367   3.2447   3.2458   3.3338   3.4028   3.4047   3.4084
  3.4119   3.4223   3.4353   3.4620   3.4723   3.4857   3.5109   3.5130
  3.5248   3.5726   3.5795   3.5825   3.5996   3.6124   3.6271   3.7297
  3.7418
 --------------------------------------------------------------
 
          Ground-State Mulliken Net Atomic Charges

     Atom                 Charge (a.u.)    Spin (a.u.)
  --------------------------------------------------------
      1 N                    -0.022258       0.014403
      2 C                     0.003178      -0.000682
      3 H                    -0.002527       0.000878
      4 N                    -0.080436       0.013752
      5 H                     0.082182       0.000465
      6 C                     0.096013      -0.000030
      7 O                    -0.444182       0.000070
      8 C                     0.257074       0.004116
      9 O                    -0.397905       0.077084
     10 C                     0.128442       0.001725
     11 C                     0.035356       0.003379
     12 H                     0.058558       0.000960
     13 H                     0.069507      -0.000106
     14 H                     0.059586       0.000213
     15 C                    -0.095119       0.033402
     16 H                    -0.020585      -0.000807
     17 C                     0.116195      -0.010447
     18 C                     0.082448       0.007841
     19 H                     0.024341       0.001624
     20 H                     0.047097      -0.000993
     21 C                     0.103866      -0.000276
     22 O                    -0.372863       0.000234
     23 N                    -0.084956      -0.000018
     24 H                     0.080636       0.000021
     25 C                     0.099822      -0.000005
     26 O                    -0.438656       0.000028
     27 N                    -0.021088       0.015899
     28 C                     0.140532       0.003760
     29 C                     0.020154       0.003293
     30 H                     0.049573       0.000256
     31 H                     0.075095       0.000826
     32 H                     0.072102      -0.000174
     33 C                     0.142907       0.001082
     34 H                     0.030853       0.000779
     35 H                     0.036236       0.001333
     36 C                    -0.026311       0.000701
     37 H                     0.003233       0.000418
     38 H                     0.012011      -0.000009
     39 C                    -0.039928       0.000265
     40 H                     0.069863       0.001673
     41 H                    -0.012306      -0.000001
     42 C                     0.050231       0.000337
     43 H                    -0.017290      -0.000007
     44 H                    -0.018304       0.000049
     45 C                    -0.003155      -0.000008
     46 H                    -0.000876      -0.000002
     47 C                    -0.015427       0.000942
     48 H                     0.013601       0.000071
     49 H                     0.015520       0.000483
     50 C                     0.129835       0.001339
     51 H                     0.048545       0.000872
     52 H                     0.041867       0.000542
     53 C                    -0.003559      -0.000033
     54 H                     0.008856      -0.000076
     55 H                     0.002804       0.000014
     56 C                     0.007783       0.000526
     57 H                     0.044461       0.000349
     58 H                    -0.007411       0.000107
     59 O                    -0.442448       0.000581
     60 O                    -0.440205       0.000003
     61 O                    -0.410040       0.116327
     62 Fe                    0.661408       4.168495
     63 O                    -0.432625       0.176146
     64 O                    -0.369727       0.087422
     65 O                    -0.428139       0.181094
     66 O                    -0.373443       0.087498
  --------------------------------------------------------
  Sum of atomic charges =    -2.000000
  Sum of spin   charges =     5.000000

 -----------------------------------------------------------------
                    Cartesian Multipole Moments
 -----------------------------------------------------------------
    Charge (ESU x 10^10)
                -9.6064
    Dipole Moment (Debye)
         X      -2.5345      Y      16.7743      Z      -1.4252
       Tot      17.0244
    Quadrupole Moments (Debye-Ang)
        XX    -507.1003     XY      -7.7168     YY    -252.5106
        XZ      79.6670     YZ      -8.5684     ZZ    -251.2581
    Octopole Moments (Debye-Ang^2)
       XXX    -112.1354    XXY     642.0524    XYY      56.0546
       YYY     147.4791    XXZ     -86.2170    XYZ     -64.1229
       YYZ      52.7226    XZZ     -14.7482    YZZ      83.5009
       ZZZ     173.9792
    Hexadecapole Moments (Debye-Ang^3)
      XXXX  -31289.9929   XXXY     149.6708   XXYY   -4597.2670
      XYYY      72.2064   YYYY   -5129.4495   XXXZ    3635.2465
      XXYZ     250.3381   XYYZ     607.5754   YYYZ     -36.5257
      XXZZ   -4005.1460   XYZZ     121.1596   YYZZ   -1454.0444
      XZZZ    1171.9587   YZZZ     -59.9798   ZZZZ   -3078.2585
 -----------------------------------------------------------------
 Calculating analytic gradient of the SCF energy
 Gradient of SCF Energy
            1           2           3           4           5           6
    1  -0.0221639   0.0031107  -0.0031000   0.0315448   0.0130023  -0.0965055
    2   0.0334235   0.0259230  -0.0247629  -0.0307014   0.0534375  -0.0596976
    3   0.0028931   0.0292830  -0.0430314  -0.0299049   0.0100018   0.0113976
            7           8           9          10          11          12
    1   0.1223293  -0.0177300  -0.0057481   0.0115482   0.0047561   0.0114842
    2  -0.0492907   0.0209252  -0.0632489  -0.0014508  -0.0076762  -0.0003016
    3  -0.0293528   0.0209988  -0.0202650   0.0067845   0.0033407   0.0241984
           13          14          15          16          17          18
    1   0.0226585  -0.0132986   0.0146050   0.0145825  -0.0080733  -0.0001131
    2   0.0058620  -0.0274653  -0.0137398   0.0494223   0.0199189  -0.0056750
    3  -0.0223466  -0.0059442  -0.0079076  -0.0001424   0.0086231   0.0145223
           19          20          21          22          23          24
    1   0.0208208  -0.0229081  -0.0137564   0.0455310  -0.0234349  -0.0157104
    2   0.0389830   0.0031226  -0.0180809   0.0243675  -0.0029214  -0.0039477
    3   0.0056014  -0.0364948  -0.0985210   0.1226797   0.0425222  -0.0548414
           25          26          27          28          29          30
    1   0.1055616  -0.1196218   0.0244175  -0.0154582  -0.0015317   0.0152728
    2   0.0087301  -0.0286712   0.0044698   0.0033302  -0.0067079   0.0016003
    3   0.0479657   0.0593516   0.0401684  -0.0008927  -0.0082067  -0.0330844
           31          32          33          34          35          36
    1  -0.0249349  -0.0152074   0.0075331   0.0039623  -0.0217629   0.0108411
    2   0.0289560  -0.0268148   0.0064487  -0.0244306  -0.0144601   0.0008535
    3   0.0038164   0.0034721  -0.0006430   0.0278472  -0.0218355   0.0072404
           37          38          39          40          41          42
    1  -0.0349745  -0.0044371  -0.0217839   0.0441795   0.0073888  -0.0003659
    2  -0.0115828   0.0233208  -0.0011026   0.0131047  -0.0271774   0.0050381
    3   0.0131663  -0.0303435  -0.0044887  -0.0174626   0.0301882  -0.0248446
           43          44          45          46          47          48
    1   0.0239061  -0.0334755   0.0064775  -0.0102629  -0.0075333   0.0157070
    2   0.0136694  -0.0140979  -0.0233815   0.0386145   0.0012286  -0.0221886
    3   0.0351007   0.0201102  -0.0276429   0.0295932  -0.0074364  -0.0094731
           49          50          51          52          53          54
    1   0.0146000   0.0017175   0.0044778  -0.0154504   0.0006051  -0.0337973
    2   0.0115439  -0.0026931  -0.0223692   0.0286495  -0.0205921   0.0234352
    3   0.0227357  -0.0147979   0.0177446   0.0206140  -0.0038580   0.0064280
           55          56          57          58          59          60
    1   0.0326028  -0.0033462  -0.0300541   0.0320179  -0.0086805  -0.0051075
    2   0.0224935   0.0187874  -0.0283655  -0.0206477   0.1192781   0.0194983
    3   0.0042542   0.0059367  -0.0038057  -0.0042797   0.0160491  -0.1178846
           61          62          63          64          65          66
    1  -0.0362809   0.0034902   0.0119750  -0.0335017  -0.0137556   0.0511592
    2  -0.0533868   0.0128121   0.0005472  -0.0168992  -0.0124777   0.0052116
    3   0.0047884   0.0025745   0.0169525  -0.0406228   0.0101801  -0.0287700
 Max gradient component =       1.227E-01
 RMS gradient           =       3.197E-02
 Computing fast CPCM-SWIG gradient
 Updating gradient with PCM contributions...
 -- total gradient after adding PCM contribution --
---------------------------------------------------
  Atom         X              Y              Z     
---------------------------------------------------
   1       0.000022       0.000168      -0.000306
   2       0.000157      -0.000307       0.000016
   3      -0.000084       0.000016       0.000002
   4      -0.000176       0.000029       0.000025
   5       0.000050       0.000002      -0.000018
   6       0.000049       0.000089      -0.000020
   7      -0.000005       0.000004      -0.000007
   8      -0.000079       0.000043       0.000005
   9       0.000049      -0.000002      -0.000054
  10      -0.000044      -0.000081       0.000129
  11       0.000035       0.000048       0.000018
  12      -0.000044      -0.000039       0.000030
  13      -0.000000      -0.000016       0.000006
  14      -0.000001      -0.000003      -0.000033
  15       0.000078      -0.000049       0.000010
  16       0.000007      -0.000011      -0.000026
  17      -0.000019      -0.000091      -0.000021
  18      -0.000062       0.000032       0.000160
  19      -0.000011       0.000039      -0.000115
  20       0.000022      -0.000034      -0.000015
  21       0.000026      -0.000028      -0.000001
  22       0.000017      -0.000050      -0.000011
  23       0.000114       0.000175      -0.000091
  24      -0.000070      -0.000018      -0.000009
  25      -0.000011       0.000042       0.000043
  26       0.000025      -0.000004      -0.000020
  27       0.000152       0.000112       0.000082
  28       0.000030       0.000014       0.000126
  29      -0.000208       0.000015      -0.000040
  30       0.000012       0.000029       0.000022
  31       0.000018       0.000000       0.000016
  32       0.000059      -0.000024      -0.000015
  33       0.000014      -0.000128      -0.000184
  34      -0.000007      -0.000015       0.000011
  35      -0.000019       0.000003       0.000054
  36      -0.000055       0.000142       0.000026
  37       0.000023      -0.000028       0.000054
  38      -0.000041      -0.000029      -0.000007
  39       0.000031       0.000034       0.000056
  40       0.000048      -0.000003       0.000071
  41      -0.000045       0.000003      -0.000012
  42      -0.000057       0.000029      -0.000119
  43       0.000030       0.000047      -0.000009
  44       0.000012       0.000050       0.000053
  45       0.000034      -0.000237       0.000145
  46      -0.000025       0.000067      -0.000064
  47       0.000067      -0.000084      -0.000090
  48      -0.000034       0.000004       0.000007
  49      -0.000036       0.000040       0.000009
  50      -0.000067       0.000119       0.000087
  51       0.000020      -0.000025      -0.000026
  52       0.000023      -0.000013       0.000008
  53       0.000040      -0.000065      -0.000003
  54       0.000006       0.000022      -0.000032
  55       0.000004      -0.000015      -0.000010
  56      -0.000033       0.000157       0.000070
  57      -0.000001      -0.000008      -0.000009
  58       0.000013      -0.000029      -0.000028
  59       0.000014      -0.000031      -0.000010
  60      -0.000027       0.000028       0.000009
  61      -0.000029       0.000113      -0.000003
  62       0.000189      -0.000142      -0.000247
  63       0.000039      -0.000122       0.000197
  64      -0.000101       0.000139      -0.000004
  65      -0.000267      -0.000018       0.000050
  66       0.000128      -0.000108       0.000062
---------------------------------------------------
 Number of fixed atoms: 0
 Gradient time:  CPU 15884.68 s  wall 843.40 s

 *****************************************************
             Starting BFGS Algorithm
 *****************************************************
            LIBOPT3 RUN PARAMETERS

  Geometry Optimization Coordinates :
	Delocalized Natural Internal Coordinates

  Step Length Selection Method :
	Eigenvector Following Algorithm

  Convergence Criteria :
	Max Gradient Component    	3.00000000e-04
	Max Displacement Component	1.20000000e-03
	Absolute Energy Difference	1.00000000e-06

  Initial Hessian :
	Approximate Hessian - Simple Internal Coordinate Scaled

  Type of Verification :
	Verify with final updated Hessian
 *****************************************************

	OPTIMIZATION CYCLE:	1

 Scaling Magnitude of Eigenvalues
 	Minimum: -25.00000000	 Maximum: 25.00000000
 192 Hessian Eigenvalues to form next step
   0.10000000   0.10000000   0.10000000   0.10000000   0.10000000
   0.10000000   0.10000000   0.10000000   0.10000005   0.10000014
   0.10000030   0.10000045   0.10000099   0.10000112   0.10000206
   0.10000491   0.10000645   0.10000653   0.10002526   0.10002771
   0.10016520   0.10021963   0.10024101   0.10030824   0.10067791
   0.10081060   0.10127845   0.10365316   0.10393827   0.10613008
   0.10841854   0.11083125   0.11151514   0.11306159   0.11481956
   0.11556535   0.11830290   0.11879538   0.12032626   0.12202337
   0.12296817   0.12326453   0.12364990   0.12410852   0.12537849
   0.12616511   0.12640628   0.12661879   0.12698090   0.13098178
   0.13203680   0.13331925   0.13418048   0.13622317   0.13719420
   0.13775033   0.13822750   0.13945799   0.14144833   0.14238410
   0.14242951   0.14418304   0.14449168   0.14539675   0.14658026
   0.15163334   0.15221431   0.15254133   0.15343027   0.15359758
   0.15377224   0.15446345   0.15753856   0.15838444   0.15962046
   0.16037792   0.16391577   0.17120445   0.17639219   0.17701379
   0.17732150   0.17790080   0.17864701   0.17979416   0.18121590
   0.18209490   0.18257679   0.18528673   0.19012737   0.19179950
   0.19234833   0.19410575   0.19477615   0.19696089   0.19714295
   0.19858168   0.19893983   0.19953083   0.19987452   0.19994412
   0.19997958   0.19999028   0.19999411   0.19999770   0.19999905
   0.19999959   0.20000000   0.20000000   0.20000000   0.20000000
   0.20000000   0.20000000   0.20000000   0.20000000   0.20000114
   0.20451629   0.20663603   0.21064668   0.21888797   0.28558270
   0.29483538   0.29951699   0.41734355   0.43151347   0.43696308
   0.44152779   0.44461928   0.45459479   0.46539819   0.46606342
   0.47256981   0.47842236   0.48129274   0.48762020   0.49697826
   0.49806139   0.49870918   0.49988800   0.49990343   0.49998628
   0.50000000   0.50000000   0.50000000   0.50000000   0.50000000
   0.50000000   0.50000000   0.50000000   0.50000000   0.50000000
   0.50000000   0.50000000   0.50000000   0.50000000   0.50000000
   0.50000000   0.50000000   0.50000000   0.50000000   0.50000000
   0.50000000   0.50000000   0.50000000   0.50000000   0.50000000
   0.50000000   0.50000000   0.50000000   0.50000000   0.50000000
   0.50000000   0.50000000   0.50000000   0.50000000   0.50000000
   0.50000000   0.50000000   0.50000000   0.50000000   0.50000000
   0.50000000   0.50000000   0.50000000   0.50000000   0.50000000
   0.50000114   0.50549516   0.50899138   0.51029566   0.51338008
   0.51831221   0.52643165

 Minimum Search taking a RFO step
 Searching for Lambda that minimizes along all modes
	Value of Lambda   -0.00000181
	Norm  of Stepsize  0.00347662
	RMS   of Stepsize  0.00025090

	Performing Iterative Coordinate Back-Transformation

	  Starting from Previous Position

	  iter:	0	rms: 5.6276126190e-04	maxdev: 1.9395248664e-03
	  iter:	1	rms: 1.1454112822e-07	maxdev: 3.9959219220e-07	 Success!

	Finished Iterative Coordinate Back-Transformation
 Adding empirical dispersion correction 
 ----------------------------------------------------------------
 Doing -D3(BJ) with
 s6  =   1.00000e+00
 s8  =   1.98890e+00
 a1  =   3.98100e-01
 a2  =   4.42110e+00
 -D3 energy without 3body term =     -1.5826712834e-01 hartrees
 ----------------------------------------------------------------
             Standard Nuclear Orientation (Angstroms)
    I     Atom           X                Y                Z
 ----------------------------------------------------------------
    1      N      -2.2862296459     1.6148837133    -1.7119485562
    2      C      -4.3647235483    -0.7885544529     1.4392738706
    3      H      -4.3071110899    -0.2628077124     2.4079572374
    4      N      -3.1886117239    -1.6218311468     1.2498978536
    5      H      -3.4568228448    -2.5962567697     1.0883671036
    6      C      -5.6025503012    -1.7394690520     1.4889118608
    7      O      -6.7026289956    -1.1863917934     1.7269678470
    8      C      -1.9251457433    -1.2154243883     1.0731415106
    9      O      -1.6281687843     0.0182027239     1.2799829883
   10      C      -2.3516823957     2.6306475747    -0.8555585298
   11      C      -3.4007650327     3.6924504356    -0.9957341891
   12      H      -3.8587263650     3.7179000909    -1.9912430449
   13      H      -4.1907428438     3.5221694519    -0.2469329171
   14      H      -2.9351652178     4.6645361791    -0.7800269369
   15      C      -0.9550981116    -2.2110609185     0.6823622920
   16      H      -1.2611111723    -3.2570762036     0.7126952884
   17      C       0.3263589846    -1.9003960405     0.2829386914
   18      C       1.3344848020    -3.0158367893     0.0546666057
   19      H       0.8143584593    -3.9672309914    -0.1218533536
   20      H       1.9342222065    -3.1188167083     0.9745943770
   21      C       2.2391122587    -2.7222093611    -1.1381184483
   22      O       1.8283821672    -2.8417109812    -2.3023782588
   23      N       3.4782279732    -2.3181921552    -0.8157056000
   24      H       3.7952956993    -2.2773009974     0.1546605631
   25      C       5.8234534492    -1.6823935933    -0.8708972799
   26      O       6.8535038067    -1.3578497301    -1.5086393197
   27      N       2.3142847384     2.1376794929     0.2062547477
   28      C       2.0329564180     1.9678738241     1.4951266439
   29      C       3.1033043799     2.1131853467     2.5393409518
   30      H       2.6303299980     2.0625110646     3.5275055814
   31      H       3.8389430685     1.2977546320     2.4531885330
   32      H       3.6418573549     3.0670439084     2.4424208562
   33      C       3.6251021754     2.3670321773    -0.3958053081
   34      H       3.4620258557     3.0856987816    -1.2136203625
   35      H       4.2639513534     2.8493135184     0.3546577968
   36      C       4.2823698794     1.0845735780    -0.9140598610
   37      H       5.2941061053     1.3525139817    -1.2670562953
   38      H       4.4257932853     0.3943115283    -0.0674873905
   39      C       3.5020373417     0.3934827048    -2.0369821896
   40      H       2.5277130842     0.0711832425    -1.6438087639
   41      H       3.2852559018     1.1346325270    -2.8272104223
   42      C       4.2123797470    -0.8003664079    -2.6816746655
   43      H       3.5703468642    -1.1797273545    -3.4911247260
   44      H       5.1687803619    -0.4907873270    -3.1328016916
   45      C       4.5490005298    -1.9665701747    -1.7318359874
   46      H       4.7924619645    -2.8404049302    -2.3647581679
   47      C      -4.6294351125     0.7635423894    -2.1839948319
   48      H      -5.2124012233     1.6245571346    -1.8161611741
   49      H      -5.1804161877     0.3800388418    -3.0590293267
   50      C      -3.2781360052     1.2449727729    -2.7307202668
   51      H      -3.4239138841     2.0966941232    -3.4123590467
   52      H      -2.7876641687     0.4451540370    -3.2991611153
   53      C      -4.5628587924    -0.3152656836    -1.0872304148
   54      H      -3.6804353806    -0.9559469497    -1.2497433575
   55      H      -5.4422017782    -0.9739038823    -1.1811090104
   56      C      -4.5359233176     0.2669895668     0.3315420958
   57      H      -3.7323392816     1.0065878147     0.4257449548
   58      H      -5.4872913900     0.7853311896     0.5308087448
   59      O      -5.3834602885    -2.9644846997     1.2674418891
   60      O       5.7040926850    -1.8091801657     0.3825287614
   61      O       0.7901232005    -0.6996135930     0.0990551534
   62      Fe     -0.2388176072     1.0133859004     0.1389300703
   63      O      -1.2846750319     0.7046454294    -1.5174266785
   64      O      -1.5045002849     2.6870371216     0.0954761251
   65      O       1.2847748659     1.9908589608    -0.6732766422
   66      O       0.8346761853     1.6647037936     1.8206020358
 ----------------------------------------------------------------
 Nuclear Repulsion Energy =        5303.39379280 hartrees
 There are      152 alpha and      147 beta electrons
No default van der Waals radius is available for Z = 26
	Found R = 2.4400 A in the $van_der_waals section
 Discretize the solute cavity surface with Lebedev spheres
	Using 110 Lebedev grid points for each H atom
	Using 194 Lebedev grid points for other atoms
	Atomic van der Waals radii (Bondi set) will be scaled by 1.20
 Using smooth SwiG surface discretization
 Remove points where switching function is < 1.0e-08
 Keep 3904 surface tesserae and discard 6464 interior tesserae
 Molecular Surface Area = 499.726 Angst**2

 Applying Cartesian multipole field
    Component          Value
    ---------          -----
     (2,0,0)        1.00000E-12
     (0,2,0)        2.00000E-11
     (0,0,2)       -3.00000E-11
 Nucleus-field energy     = 2.3795219750e-08 hartrees
 Read the previous MOs as SCF guess

 -----------------------------------------------------------------------
  General SCF calculation program by
  Eric Jon Sundstrom, Paul Horn, Yuezhi Mao, Dmitri Zuev, Alec White,
  David Stuck, Shaama M.S., Shane Yost, Joonho Lee, David Small,
  Daniel Levine, Susi Lehtola, Hugh Burton, Evgeny Epifanovsky,
  Bang C. Huynh
 -----------------------------------------------------------------------
 Requested basis set is non-standard
 There are 318 shells and 692 basis functions
 Exchange:     0.2000 Hartree-Fock + 0.0800 Slater + 0.7200 B88
 Correlation:  0.1900 VWN1RPA + 0.8100 LYP
 Using SG-1 standard quadrature grid
 Dispersion:   Grimme D3
 A cutoff of  1.0D-12 yielded  39613 shell pairs
 There are    172767 function pairs (    191968 Cartesian)
 Smallest overlap matrix eigenvalue = 2.63E-04
 A unrestricted SCF calculation will be
 performed using DIIS
 SCF converges when DIIS error is below 1.0e-08
 ---------------------------------------
  Cycle       Energy         DIIS error
 ---------------------------------------
    1   -3128.3962751839      1.81e-04  
    2   -3128.6337692079      2.93e-04  
    3   -3128.6607131335      1.40e-04  
    4   -3128.6645215603      9.35e-05  
    5   -3128.6661059977      7.09e-05  
    6   -3128.6672533510      5.62e-05  
    7   -3128.6679395207      4.59e-05  
    8   -3128.6684593400      3.61e-05  
    9   -3128.6688724247      2.58e-05  
   10   -3128.6691152840      1.71e-05  
   11   -3128.6692419806      9.97e-06  
   12   -3128.6692951760      4.20e-06  
   13   -3128.6693059211      1.09e-06  
   14   -3128.6693066696      1.67e-07  
   15   -3128.6693066873      2.87e-08  
   16   -3128.6693066871      3.28e-08  
   17   -3128.6693066879      3.48e-09  Convergence criterion met
 ---------------------------------------
 SCF time:   CPU 18994.04s  wall 1298.00s 
<S^2> =          8.759030153

************** Final PCM Free Energy Summary **************
 G_electrostatic  =      -0.27308642 hartree =    -171.36431527 kcal/mol
 G_cavitation     =       0.00000000 hartree =       0.00000000 kcal/mol
 G_dispersion     =       0.00000000 hartree =       0.00000000 kcal/mol
 G_repulsion      =       0.00000000 hartree =       0.00000000 kcal/mol
 --------------------------------------------------
 Non-electrostatic Free Energy =       0.00000000 hartree =       0.00000000 kcal/mol
 Total                         =      -0.27308642 hartree =    -171.36431527 kcal/mol
 --------------------------------------------------
 SCF Energy (H0 + V/2)                       =   -3128.66930669 
 Solute Internal Energy (H0)                 =   -3128.39622027 
 Total Free Energy (H0 + V/2 + non-elec)     =   -3128.66930669 hartree
                                             = -1963269.62157367 kcal/mol
***********************************************************

 SCF   energy in the final basis set =    -3128.6693066879
 Total energy in the final basis set =    -3128.6693066879
 
 --------------------------------------------------------------
 
                    Orbital Energies (a.u.)
 --------------------------------------------------------------
 
 Alpha MOs
 -- Occupied --
******** -30.1423 -25.9962 -25.9939 -25.9923 -19.1402 -19.1357 -19.1341
-19.1338 -19.1227 -19.1215 -19.0917 -19.0637 -19.0629 -19.0566 -19.0562
-14.4146 -14.4120 -14.3374 -14.3287 -10.2908 -10.2897 -10.2847 -10.2719
-10.2515 -10.2499 -10.2490 -10.2243 -10.2209 -10.2022 -10.1982 -10.1941
-10.1936 -10.1857 -10.1836 -10.1745 -10.1738 -10.1686 -10.1653 -10.1634
-10.1605  -3.6248  -2.4024  -2.3985  -2.3946  -1.0890  -1.0867  -1.0350
 -1.0188  -1.0166  -1.0148  -1.0086  -1.0032  -1.0015  -0.9217  -0.9181
 -0.9063  -0.8986  -0.8609  -0.8571  -0.7927  -0.7893  -0.7734  -0.7573
 -0.7470  -0.7321  -0.7238  -0.7142  -0.6913  -0.6780  -0.6412  -0.6331
 -0.5993  -0.5861  -0.5672  -0.5582  -0.5492  -0.5432  -0.5379  -0.5257
 -0.5149  -0.5116  -0.5085  -0.5023  -0.4988  -0.4888  -0.4848  -0.4765
 -0.4720  -0.4691  -0.4644  -0.4570  -0.4495  -0.4470  -0.4416  -0.4401
 -0.4335  -0.4319  -0.4279  -0.4246  -0.4210  -0.4187  -0.4170  -0.4161
 -0.4105  -0.4067  -0.4052  -0.4017  -0.4010  -0.3969  -0.3946  -0.3891
 -0.3842  -0.3812  -0.3799  -0.3798  -0.3790  -0.3746  -0.3682  -0.3669
 -0.3625  -0.3582  -0.3560  -0.3520  -0.3465  -0.3437  -0.3330  -0.3285
 -0.3249  -0.3224  -0.3216  -0.3175  -0.3143  -0.3088  -0.3071  -0.2979
 -0.2948  -0.2788  -0.2603  -0.2445  -0.2432  -0.2410  -0.2363  -0.2290
 -0.2257  -0.2217  -0.2200  -0.2136  -0.2122  -0.2112  -0.2100  -0.2073
 -- Virtual --
 -0.0137   0.0092   0.0133   0.0314   0.0350   0.0516   0.0564   0.0632
  0.0706   0.0760   0.0808   0.0875   0.0907   0.0913   0.0991   0.1039
  0.1056   0.1068   0.1124   0.1162   0.1183   0.1233   0.1309   0.1332
  0.1356   0.1427   0.1447   0.1460   0.1537   0.1555   0.1642   0.1676
  0.1708   0.1730   0.1747   0.1798   0.1804   0.1837   0.1894   0.1904
  0.1926   0.2038   0.2061   0.2080   0.2140   0.2162   0.2221   0.2331
  0.2400   0.2423   0.2476   0.2523   0.2559   0.2602   0.2624   0.2658
  0.2736   0.2746   0.2768   0.2854   0.2923   0.3012   0.3026   0.3152
  0.3199   0.3215   0.3342   0.3465   0.3567   0.3631   0.3653   0.3692
  0.3765   0.3833   0.3864   0.3951   0.3983   0.4060   0.4121   0.4226
  0.4234   0.4292   0.4359   0.4401   0.4413   0.4494   0.4554   0.4603
  0.4649   0.4701   0.4713   0.4750   0.4854   0.4900   0.4951   0.4972
  0.5072   0.5120   0.5141   0.5243   0.5248   0.5328   0.5387   0.5459
  0.5499   0.5536   0.5550   0.5587   0.5600   0.5672   0.5718   0.5767
  0.5801   0.5815   0.5838   0.5893   0.5977   0.5986   0.6023   0.6131
  0.6137   0.6160   0.6194   0.6227   0.6287   0.6299   0.6342   0.6378
  0.6390   0.6411   0.6456   0.6461   0.6531   0.6546   0.6580   0.6618
  0.6656   0.6677   0.6716   0.6735   0.6763   0.6792   0.6852   0.6878
  0.6888   0.6948   0.6985   0.6998   0.7016   0.7049   0.7095   0.7138
  0.7149   0.7171   0.7203   0.7279   0.7313   0.7350   0.7366   0.7451
  0.7564   0.7584   0.7605   0.7670   0.7737   0.7767   0.7818   0.7867
  0.7995   0.8022   0.8045   0.8143   0.8167   0.8274   0.8340   0.8440
  0.8476   0.8547   0.8627   0.8759   0.8823   0.8865   0.8923   0.8982
  0.9047   0.9144   0.9223   0.9342   0.9382   0.9412   0.9448   0.9591
  0.9709   0.9836   0.9906   1.0053   1.0085   1.0154   1.0211   1.0253
  1.0293   1.0351   1.0449   1.0459   1.0504   1.0610   1.0617   1.0720
  1.0779   1.0861   1.0919   1.0998   1.1045   1.1088   1.1105   1.1202
  1.1233   1.1291   1.1310   1.1439   1.1459   1.1554   1.1624   1.1684
  1.1725   1.1774   1.1826   1.1845   1.1930   1.2021   1.2064   1.2093
[...]
        XZ      79.6952     YZ      -8.5696     ZZ    -251.2616
    Octopole Moments (Debye-Ang^2)
       XXX    -112.2892    XXY     642.1204    XYY      56.0430
       YYY     147.4841    XXZ     -86.1240    XYZ     -64.1678
       YYZ      52.6872    XZZ     -14.7649    YZZ      83.4931
       ZZZ     173.9565
    Hexadecapole Moments (Debye-Ang^3)
      XXXX  -31291.8546   XXXY     149.9873   XXYY   -4597.3696
      XYYY      72.1180   YYYY   -5128.8450   XXXZ    3636.7059
      XXYZ     250.3073   XYYZ     607.6824   YYYZ     -36.3923
      XXZZ   -4005.6573   XYZZ     121.0669   YYZZ   -1453.9913
      XZZZ    1172.3531   YZZZ     -59.8679   ZZZZ   -3078.6984
 -----------------------------------------------------------------
 Calculating analytic gradient of the SCF energy
 Gradient of SCF Energy
            1           2           3           4           5           6
    1  -0.0220862   0.0030872  -0.0031005   0.0316030   0.0130065  -0.0965420
    2   0.0334204   0.0260159  -0.0247759  -0.0307100   0.0534241  -0.0597372
    3   0.0029758   0.0292597  -0.0430344  -0.0298890   0.0099919   0.0114072
            7           8           9          10          11          12
    1   0.1223489  -0.0176854  -0.0057674   0.0115474   0.0047486   0.0114765
    2  -0.0492942   0.0209235  -0.0632888  -0.0014513  -0.0076803  -0.0003033
    3  -0.0293540   0.0209924  -0.0202597   0.0067556   0.0033431   0.0241959
           13          14          15          16          17          18
    1   0.0226651  -0.0133025   0.0145433   0.0145846  -0.0080306  -0.0000798
    2   0.0058621  -0.0274592  -0.0137090   0.0494289   0.0199965  -0.0056900
    3  -0.0223326  -0.0059470  -0.0078946  -0.0001452   0.0086152   0.0144942
           19          20          21          22          23          24
    1   0.0208135  -0.0229161  -0.0137961   0.0455580  -0.0234486  -0.0157247
    2   0.0389821   0.0031136  -0.0180482   0.0243451  -0.0029504  -0.0039370
    3   0.0056009  -0.0364957  -0.0985332   0.1226889   0.0425368  -0.0548186
           25          26          27          28          29          30
    1   0.1056106  -0.1196333   0.0243308  -0.0154747  -0.0014796   0.0152776
    2   0.0087101  -0.0286859   0.0044596   0.0033258  -0.0067031   0.0016110
    3   0.0479180   0.0594187   0.0401462  -0.0009652  -0.0081656  -0.0330860
           31          32          33          34          35          36
    1  -0.0249397  -0.0152177   0.0075349   0.0039668  -0.0217623   0.0108806
    2   0.0289553  -0.0268213   0.0065048  -0.0244247  -0.0144578   0.0008222
    3   0.0038258   0.0034603  -0.0005949   0.0278380  -0.0218531   0.0072395
           37          38          39          40          41          42
    1  -0.0349677  -0.0044474  -0.0217979   0.0441710   0.0073885  -0.0003594
    2  -0.0115874   0.0233297  -0.0011175   0.0131001  -0.0271862   0.0050174
    3   0.0131708  -0.0303457  -0.0045354  -0.0174632   0.0301936  -0.0248032
           43          44          45          46          47          48
    1   0.0239102  -0.0334686   0.0064826  -0.0102488  -0.0075393   0.0157150
    2   0.0136637  -0.0140932  -0.0233206   0.0386083   0.0012485  -0.0221988
    3   0.0350881   0.0201207  -0.0276809   0.0295916  -0.0074039  -0.0094741
           49          50          51          52          53          54
    1   0.0146005   0.0017226   0.0044719  -0.0154576   0.0005918  -0.0337867
    2   0.0115337  -0.0027368  -0.0223624   0.0286573  -0.0205638   0.0234383
    3   0.0227319  -0.0148146   0.0177465   0.0206113  -0.0038433   0.0064286
           55          56          57          58          59          60
    1   0.0326087  -0.0033307  -0.0300572   0.0320029  -0.0087088  -0.0051384
    2   0.0224873   0.0187412  -0.0283638  -0.0206476   0.1192932   0.0195245
    3   0.0042565   0.0059079  -0.0037984  -0.0042782   0.0160407  -0.1179025
           61          62          63          64          65          66
    1  -0.0362977   0.0034736   0.0119137  -0.0334970  -0.0136731   0.0511267
    2  -0.0534604   0.0128205   0.0005857  -0.0169210  -0.0124653   0.0052021
    3   0.0047967   0.0025911   0.0169072  -0.0406306   0.0102063  -0.0287505
 Max gradient component =       1.227E-01
 RMS gradient           =       3.197E-02
 Computing fast CPCM-SWIG gradient
 Updating gradient with PCM contributions...
 -- total gradient after adding PCM contribution --
---------------------------------------------------
  Atom         X              Y              Z     
---------------------------------------------------
   1       0.000107       0.000156      -0.000200
   2       0.000095      -0.000191      -0.000003
   3      -0.000055       0.000000       0.000000
   4      -0.000102       0.000034       0.000034
   5       0.000029      -0.000002      -0.000014
   6       0.000037       0.000056      -0.000013
   7      -0.000009      -0.000027      -0.000012
   8      -0.000016       0.000036      -0.000013
   9       0.000006      -0.000047      -0.000038
  10      -0.000043      -0.000067       0.000105
  11       0.000020       0.000037       0.000015
  12      -0.000039      -0.000032       0.000024
  13       0.000003      -0.000004       0.000014
  14      -0.000001      -0.000002      -0.000027
  15       0.000033      -0.000013       0.000021
  16       0.000003      -0.000005      -0.000022
  17       0.000015      -0.000030      -0.000029
  18      -0.000020       0.000021       0.000107
  19      -0.000021       0.000032      -0.000084
  20       0.000009      -0.000042      -0.000016
  21       0.000014      -0.000011      -0.000015
  22       0.000025      -0.000045       0.000001
  23       0.000052       0.000123      -0.000052
  24      -0.000035      -0.000003      -0.000006
  25      -0.000011       0.000028       0.000016
  26       0.000002      -0.000014       0.000025
  27       0.000077       0.000106       0.000049
  28      -0.000008      -0.000001       0.000052
  29      -0.000129       0.000024      -0.000003
  30      -0.000001       0.000025       0.000012
  31       0.000004      -0.000009       0.000020
  32       0.000040      -0.000023      -0.000013
  33       0.000014      -0.000081      -0.000114
  34      -0.000010      -0.000007       0.000009
  35      -0.000009       0.000011       0.000024
  36      -0.000020       0.000100       0.000015
  37       0.000024      -0.000029       0.000047
  38      -0.000041      -0.000007       0.000003
  39       0.000023       0.000036       0.000014
  40       0.000034      -0.000019       0.000056
  41      -0.000047       0.000004       0.000002
  42      -0.000038       0.000037      -0.000074
  43       0.000023       0.000038      -0.000012
  44       0.000018       0.000032       0.000048
  45       0.000026      -0.000158       0.000083
  46      -0.000016       0.000050      -0.000050
  47       0.000044      -0.000057      -0.000050
  48      -0.000016       0.000002       0.000001
  49      -0.000027       0.000027       0.000005
  50      -0.000047       0.000062       0.000071
  51       0.000015      -0.000016      -0.000018
  52       0.000011      -0.000008       0.000001
  53       0.000022      -0.000036      -0.000006
  54       0.000010       0.000017      -0.000019
  55       0.000009      -0.000016      -0.000008
  56      -0.000016       0.000106       0.000026
  57       0.000003      -0.000017       0.000001
  58       0.000002      -0.000026      -0.000026
  59      -0.000007      -0.000005      -0.000006
  60       0.000014       0.000038      -0.000010
  61      -0.000038       0.000040      -0.000000
  62       0.000171      -0.000141      -0.000237
  63      -0.000023      -0.000086       0.000141
  64      -0.000113       0.000111      -0.000019
  65      -0.000179      -0.000009       0.000073
  66       0.000104      -0.000101       0.000092
---------------------------------------------------
 Number of fixed atoms: 0
 Gradient time:  CPU 17083.84 s  wall 899.06 s

     Step 1	:
        Energy is -3128.6693066879
                            Maximum         Tolerance       Converged?
         Gradient           1.03019626e-04	3.00000000e-04	true
         Displacement       7.94958007e-04	1.20000000e-03	true
         Energy change      1.52763005e-06	1.00000000e-06	false

	 Optimization Converged in 1 cycles

 *****************************************************
             End of BFGS Algorithm
 *****************************************************
		----------------------------------
		   Verification of Optimization
		----------------------------------

 Eigenvalues of Hessian in Optimization Verification
   0.03072969   0.10000000   0.10000000   0.10000000   0.10000000
   0.10000000   0.10000000   0.10000001   0.10000013   0.10000027
   0.10000036   0.10000053   0.10000098   0.10000186   0.10000351
   0.10000581   0.10000643   0.10002494   0.10002739   0.10004487
   0.10017494   0.10023011   0.10026661   0.10037962   0.10064972
   0.10072618   0.10125183   0.10347815   0.10377897   0.10612839
   0.10835166   0.11085685   0.11150832   0.11310697   0.11480458
   0.11556489   0.11815118   0.11878613   0.12032496   0.12202202
   0.12290370   0.12311649   0.12334612   0.12406330   0.12531071
   0.12590923   0.12641316   0.12659910   0.12695100   0.13018467
   0.13186396   0.13293222   0.13393115   0.13614157   0.13666415
   0.13777628   0.13809465   0.13929010   0.14127787   0.14223645
   0.14280880   0.14418132   0.14448611   0.14535960   0.14650853
   0.15167831   0.15219734   0.15249180   0.15347746   0.15363435
   0.15396691   0.15444252   0.15757567   0.15838768   0.15938249
   0.16037864   0.16392864   0.17147132   0.17642246   0.17678342
   0.17725170   0.17746518   0.17867843   0.17986189   0.18116449
   0.18227245   0.18266087   0.18526403   0.19004025   0.19179091
   0.19285522   0.19410818   0.19487485   0.19624723   0.19712553
   0.19748884   0.19859996   0.19921985   0.19953515   0.19992988
   0.19997068   0.19998037   0.19999038   0.19999441   0.19999789
   0.19999923   0.19999959   0.20000000   0.20000000   0.20000000
   0.20000000   0.20000000   0.20000000   0.20000071   0.20450380
   0.20646122   0.21063161   0.21882444   0.22460272   0.28508248
   0.29805532   0.30008037   0.40909943   0.41743281   0.43795383
   0.44113131   0.44279811   0.44800673   0.46460739   0.46627263
   0.46846161   0.47435137   0.48050146   0.48660119   0.49006740
   0.49747342   0.49809291   0.49884272   0.49990174   0.49991534
   0.49998787   0.50000000   0.50000000   0.50000000   0.50000000
   0.50000000   0.50000000   0.50000000   0.50000000   0.50000000
   0.50000000   0.50000000   0.50000000   0.50000000   0.50000000
   0.50000000   0.50000000   0.50000000   0.50000000   0.50000000
   0.50000000   0.50000000   0.50000000   0.50000000   0.50000000
   0.50000000   0.50000000   0.50000000   0.50000000   0.50000000
   0.50000000   0.50000000   0.50000000   0.50000000   0.50000000
   0.50000000   0.50000000   0.50000000   0.50000000   0.50000000
   0.50000000   0.50000000   0.50000000   0.50000000   0.50000104
   0.50381775   0.50722792   0.50860443   0.51062120   0.51703676
   0.52324734   0.54478927

 Found a minimum
		---------------------------------
		       End of Verification
		---------------------------------

 Final energy is -3128.669306687911

	******************************
	**  OPTIMIZATION CONVERGED  **
	******************************
 Adding empirical dispersion correction 
 ----------------------------------------------------------------
 Doing -D3(BJ) with
 s6  =   1.00000
 s8  =   1.98890
 a1  =   0.39810
 a2  =   4.42110
 -D3 energy without 3body term =     -0.1582671283 hartrees
 ----------------------------------------------------------------
             Standard Nuclear Orientation (Angstroms)
    I     Atom           X                Y                Z
 ----------------------------------------------------------------
    1      N      -2.2862296459     1.6148837133    -1.7119485562
    2      C      -4.3647235483    -0.7885544529     1.4392738706
    3      H      -4.3071110899    -0.2628077124     2.4079572374
    4      N      -3.1886117239    -1.6218311468     1.2498978536
    5      H      -3.4568228448    -2.5962567697     1.0883671036
    6      C      -5.6025503012    -1.7394690520     1.4889118608
    7      O      -6.7026289956    -1.1863917934     1.7269678470
    8      C      -1.9251457433    -1.2154243883     1.0731415106
    9      O      -1.6281687843     0.0182027239     1.2799829883
   10      C      -2.3516823957     2.6306475747    -0.8555585298
   11      C      -3.4007650327     3.6924504356    -0.9957341891
   12      H      -3.8587263650     3.7179000909    -1.9912430449
   13      H      -4.1907428438     3.5221694519    -0.2469329171
   14      H      -2.9351652178     4.6645361791    -0.7800269369
   15      C      -0.9550981116    -2.2110609185     0.6823622920
   16      H      -1.2611111723    -3.2570762036     0.7126952884
   17      C       0.3263589846    -1.9003960405     0.2829386914
   18      C       1.3344848020    -3.0158367893     0.0546666057
   19      H       0.8143584593    -3.9672309914    -0.1218533536
   20      H       1.9342222065    -3.1188167083     0.9745943770
   21      C       2.2391122587    -2.7222093611    -1.1381184483
   22      O       1.8283821672    -2.8417109812    -2.3023782588
   23      N       3.4782279732    -2.3181921552    -0.8157056000
   24      H       3.7952956993    -2.2773009974     0.1546605631
   25      C       5.8234534492    -1.6823935933    -0.8708972799
   26      O       6.8535038067    -1.3578497301    -1.5086393197
   27      N       2.3142847384     2.1376794929     0.2062547477
   28      C       2.0329564180     1.9678738241     1.4951266439
   29      C       3.1033043799     2.1131853467     2.5393409518
   30      H       2.6303299980     2.0625110646     3.5275055814
   31      H       3.8389430685     1.2977546320     2.4531885330
   32      H       3.6418573549     3.0670439084     2.4424208562
   33      C       3.6251021754     2.3670321773    -0.3958053081
   34      H       3.4620258557     3.0856987816    -1.2136203625
   35      H       4.2639513534     2.8493135184     0.3546577968
   36      C       4.2823698794     1.0845735780    -0.9140598610
   37      H       5.2941061053     1.3525139817    -1.2670562953
   38      H       4.4257932853     0.3943115283    -0.0674873905
   39      C       3.5020373417     0.3934827048    -2.0369821896
   40      H       2.5277130842     0.0711832425    -1.6438087639
   41      H       3.2852559018     1.1346325270    -2.8272104223
   42      C       4.2123797470    -0.8003664079    -2.6816746655
   43      H       3.5703468642    -1.1797273545    -3.4911247260
   44      H       5.1687803619    -0.4907873270    -3.1328016916
   45      C       4.5490005298    -1.9665701747    -1.7318359874
   46      H       4.7924619645    -2.8404049302    -2.3647581679
   47      C      -4.6294351125     0.7635423894    -2.1839948319
   48      H      -5.2124012233     1.6245571346    -1.8161611741
   49      H      -5.1804161877     0.3800388418    -3.0590293267
   50      C      -3.2781360052     1.2449727729    -2.7307202668
   51      H      -3.4239138841     2.0966941232    -3.4123590467
   52      H      -2.7876641687     0.4451540370    -3.2991611153
   53      C      -4.5628587924    -0.3152656836    -1.0872304148
   54      H      -3.6804353806    -0.9559469497    -1.2497433575
   55      H      -5.4422017782    -0.9739038823    -1.1811090104
   56      C      -4.5359233176     0.2669895668     0.3315420958
   57      H      -3.7323392816     1.0065878147     0.4257449548
   58      H      -5.4872913900     0.7853311896     0.5308087448
   59      O      -5.3834602885    -2.9644846997     1.2674418891
   60      O       5.7040926850    -1.8091801657     0.3825287614
   61      O       0.7901232005    -0.6996135930     0.0990551534
   62      Fe     -0.2388176072     1.0133859004     0.1389300703
   63      O      -1.2846750319     0.7046454294    -1.5174266785
   64      O      -1.5045002849     2.6870371216     0.0954761251
   65      O       1.2847748659     1.9908589608    -0.6732766422
   66      O       0.8346761853     1.6647037936     1.8206020358
 ----------------------------------------------------------------
 Nuclear Repulsion Energy =        5303.39379280 hartrees
 There are      152 alpha and      147 beta electrons

Z-matrix Print:
$molecule
-2 6
Fe
O  1 1.983093
N  2 1.367291 1 113.672000
C  3 1.330212 2 116.923769 1 5.762887 0
O  4 1.274898 3 118.772481 2 -1.074906 0
C  3 1.469220 2 115.186994 1 -165.824084 0
H  6 1.096995 3 103.947210 2 -16.576927 0
H  6 1.100596 3 108.907151 2 -131.068215 0
C  4 1.499216 3 121.001124 2 179.080582 0
H  9 1.096090 4 113.186818 3 -18.030813 0
H  9 1.099210 4 108.154634 3 -139.605335 0
H  9 1.101710 4 109.192441 3 103.247746 0
C  6 1.535152 3 115.231579 2 104.425672 0
H  13 1.102878 6 105.440632 3 -171.122390 0
H  13 1.102949 6 109.828681 3 75.326468 0
C  13 1.539854 6 115.805055 3 -49.189982 0
H  16 1.102522 13 109.678060 6 -31.684452 0
H  16 1.102661 13 108.865996 6 -147.463519 0
C  16 1.533839 13 113.180573 6 91.631675 0
H  19 1.096188 16 110.394616 13 -53.132347 0
H  19 1.101584 16 109.315858 13 64.873888 0
C  19 1.539660 16 114.028935 13 -175.722839 0
H  22 1.103665 19 108.101174 16 177.179288 0
N  22 1.453772 19 112.904194 16 55.018189 0
H  24 1.023491 22 110.748031 19 -115.595270 0
C  24 1.338938 22 127.345846 19 53.632055 0
O  26 1.285618 24 119.208782 22 11.443279 0
C  26 1.443950 24 117.410996 22 -169.853988 0
H  28 1.090281 26 117.738817 24 -9.900614 0
C  28 1.377746 26 123.218275 24 170.367552 0
O  30 1.300296 28 125.518315 26 -6.040310 0
C  30 1.520735 28 119.650926 26 172.432968 0
H  32 1.098563 30 110.211050 28 21.271887 0
H  32 1.102976 30 107.682783 28 -96.422898 0
C  32 1.525550 30 111.671750 28 142.289520 0
O  35 1.240355 32 121.265221 30 -75.446040 0
N  35 1.342605 32 114.672886 30 103.762537 0
H  37 1.021672 35 121.772303 32 3.974384 0
C  37 1.452407 35 126.998364 32 -179.830681 0
H  39 1.106097 37 109.386898 35 -60.431245 0
C  39 1.541278 37 114.260511 35 59.537688 0
H  41 1.100605 39 108.653241 37 -77.902804 0
H  41 1.101843 39 105.981957 37 166.736381 0
C  41 1.531499 39 115.576036 37 43.538425 0
H  44 1.098986 41 109.462944 39 -62.508424 0
H  44 1.104879 41 108.230200 39 -177.820884 0
C  44 1.532149 41 115.081583 39 60.312656 0
H  47 1.101688 44 110.296712 41 -64.001161 0
H  47 1.104540 44 109.980792 41 52.757080 0
C  47 1.531434 44 114.026927 41 173.381468 0
H  50 1.097232 47 110.466332 44 -176.088421 0
H  50 1.100862 47 111.030479 44 -56.416676 0
N  50 1.460589 47 113.151949 44 62.645035 0
C  53 1.330102 50 127.538420 47 95.685807 0
O  54 1.278171 53 118.380026 50 -174.112777 0
O  53 1.361992 50 115.411384 47 -79.376389 0
C  54 1.502379 53 120.694593 50 5.159220 0
H  57 1.096696 54 108.332755 53 172.714348 0
H  57 1.099672 54 111.810995 53 52.193382 0
H  57 1.101596 54 110.475527 53 -68.052380 0
C  22 1.561703 19 110.620411 16 -65.162630 0
O  61 1.254089 22 115.643737 19 -60.480717 0
O  61 1.264007 22 116.561653 19 118.554789 0
C  39 1.564034 37 107.308424 35 -175.243417 0
O  64 1.254212 39 115.870074 37 -179.850316 0
O  64 1.265464 39 116.754084 37 0.407155 0
$end

 -----------------------------------------------------------------------
                  END OF GEOMETRY OPTIMIZER USING LIBOPT3               
 -----------------------------------------------------------------------
 Total job time:  4574.44s(wall), 73166.05s(cpu) 
 Thu Aug  3 14:05:04 2023

        *************************************************************
        *                                                           *
        *  Thank you very much for using Q-Chem.  Have a nice day.  *
        *                                                           *
        *************************************************************


