
Running Job 1 of 1 C_FeABstar_enol_ctL_C_3sextet_SkS_camb3lyp_augccpVDZ_pcmH2O_tddft100.in
qchem C_FeABstar_enol_ctL_C_3sextet_SkS_camb3lyp_augccpVDZ_pcmH2O_tddft100.in_2053711.0 /data/scratch/C_FeABstar_enol_ctL_C_3sextet_SkS_camb3lyp_augccpVDZ_pcmH2O_tddft10020240218083537/ 0
/opt/qchem/6.0.1/exe/qcprog.exe_s C_FeABstar_enol_ctL_C_3sextet_SkS_camb3lyp_augccpVDZ_pcmH2O_tddft100.in_2053711.0 /data/scratch/C_FeABstar_enol_ctL_C_3sextet_SkS_camb3lyp_augccpVDZ_pcmH2O_tddft10020240218083537/
                  Welcome to Q-Chem
     A Quantum Leap Into The Future Of Chemistry


 Q-Chem 6.0, Q-Chem, Inc., Pleasanton, CA (2022)

 E. Epifanovsky,  A. T. B. Gilbert,  Xintian Feng,  Joonho Lee,  Yuezhi Mao,  
 N. Mardirossian,  P. Pokhilko,  A. White,  M. Wormit,  M. P. Coons,  
 A. L. Dempwolff,  Zhengting Gan,  D. Hait,  P. R. Horn,  L. D. Jacobson,  
 I. Kaliman,  J. Kussmann,  A. W. Lange,  Ka Un Lao,  D. S. Levine,  Jie Liu,  
 S. C. McKenzie,  A. F. Morrison,  K. Nanda,  F. Plasser,  D. R. Rehn,  
 M. L. Vidal,  Zhi-Qiang You,  Ying Zhu,  B. Alam,  B. Albrecht,  
 A. Aldossary,  E. Alguire,  J. H. Andersen,  V. Athavale,  D. Barton,  
 K. Begam,  A. Behn,  N. Bellonzi,  Y. A. Bernard,  E. J. Berquist,  
 H. Burton,  A. Carreras,  K. Carter-Fenk,  Romit Chakraborty,  
 Chandrima Chakravarty,  Junhan Chen,  A. D. Chien,  K. D. Closser,  
 V. Cofer-Shabica,  L. Cunha,  S. Dasgupta,  Jia Deng,  M. de Wergifosse,  
 M. Diedenhofen,  Hainam Do,  S. Ehlert,  Po-Tung Fang,  S. Fatehi,  
 Qingguo Feng,  T. Friedhoff,  B. Ganoe,  J. Gayvert,  Qinghui Ge,  
 G. Gidofalvi,  M. Goldey,  J. Gomes,  C. Gonzalez-Espinoza,  S. Gulania,  
 A. Gunina,  J. A. Gyamfi,  M. W. D. Hanson-Heine,  P. H. P. Harbach,  
 A. W. Hauser,  M. F. Herbst,  M. Hernandez Vera,  M. Hodecker,  
 Z. C. Holden,  S. Houck,  Xunkun Huang,  Kerwin Hui,  B. C. Huynh,  
 K. Ikeda,  M. Ivanov,  Hyunjun Ji,  Zuxin Jin,  Hanjie Jiang,  B. Kaduk,  
 S. Kaehler,  R. Kang,  K. Khistyaev,  Jaehoon Kim,  Yongbin Kim,  
 P. Klunzinger,  Z. Koczor-Benda,  Joong Hoon Koh,  D. Kosenkov,  
 Saikiran Kotaru,  L. Koulias,  T. Kowalczyk,  C. M. Krauter,  K. Kue,  
 A. Kunitsa,  T. Kus,  A. Landau,  K. V. Lawler,  D. Lefrancois,  S. Lehtola,  
 Rain Li,  Shaozhi Li,  Yi-Pei Li,  Jiashu Liang,  M. Liebenthal,  
 Hung-Hsuan Lin,  You-Sheng Lin,  Fenglai Liu,  Kuan-Yu Liu,  
 M. Loipersberger,  A. Luenser,  C. Malbon,  A. Manjanath,  P. Manohar,  
 E. Mansoor,  S. F. Manzer,  Shan-Ping Mao,  A. V. Marenich,  T. Markovich,  
 S. Mason,  F. Matz,  S. A. Maurer,  P. F. McLaughlin,  M. F. S. J. Menger,  
 J.-M. Mewes,  S. A. Mewes,  P. Morgante,  Mohammad Mostafanejad,  
 J. W. Mullinax,  K. J. Oosterbaan,  G. Paran,  V. Parravicini,  
 Alexander C. Paul,  Suranjan K. Paul,  F. Pavosevic,  Zheng Pei,  S. Prager,  
 E. I. Proynov,  E. Ramos,  B. Rana,  A. E. Rask,  A. Rettig,  R. M. Richard,  
 F. Rob,  E. Rossomme,  T. Scheele,  M. Scheurer,  M. Schneider,  
 P. E. Schneider,  N. Sergueev,  S. M. Sharada,  Hengyuan Shen,  
 W. Skomorowski,  D. W. Small,  C. J. Stein,  Yingli Su,  Yu-Chuan Su,  
 E. J. Sundstrom,  Zhen Tao,  J. Thirman,  Hung-Yi Tsai,  T. Tsuchimochi,  
 N. M. Tubman,  C. Utku,  S. P. Veccham,  O. Vydrov,  J. Wenzel,  
 Jonathan Wong,  J. Witte,  A. Yamada,  Chou-Hsun Yang,  Kun Yao,  
 S. Yeganeh,  S. R. Yost,  A. Zech,  F. Zeller,  Igor Ying Zhang,  
 Xing Zhang,  Yu Zhang,  D. Zuev,  A. Aspuru-Guzik,  A. T. Bell,  
 N. A. Besley,  K. B. Bravaya,  B. R. Brooks,  D. Casanova,  Jeng-Da Chai,  
 Hsing-Ta Chen,  S. Coriani,  C. J. Cramer,  A. E. DePrince, III,  
 R. A. DiStasio Jr.,  A. Dreuw,  B. D. Dunietz,  T. R. Furlani,  
 W. A. Goddard III,  S. Grimme,  S. Hammes-Schiffer,  T. Head-Gordon,  
 W. J. Hehre,  Chao-Ping Hsu,  T.-C. Jagau,  Yousung Jung,  A. Klamt,  
 Jing Kong,  D. S. Lambrecht,  Xiangyuan Li,  WanZhen Liang,  N. J. Mayhall,  
 C. W. McCurdy,  J. B. Neaton,  T. Neudecker,  C. Ochsenfeld,  
 J. A. Parkhill,  R. Peverati,  V. A. Rassolov,  Haisheng Ren,  Yihan Shao,  
 L. V. Slipchenko,  R. P. Steele,  J. E. Subotnik,  A. J. W. Thom,  
 A. Tkatchenko,  D. G. Truhlar,  T. Van Voorhis,  Fan Wang,  
 T. A. Wesolowski,  K. B. Whaley,  H. L. Woodcock III,  P. M. Zimmerman,  
 S. Faraji,  P. M. W. Gill,  M. Head-Gordon,  J. M. Herbert,  A. I. Krylov

 Contributors to earlier versions of Q-Chem not listed above: 
 R. D. Adamson,  B. Austin,  R. Baer,  J. Baker,  G. J. O. Beran,  
 K. Brandhorst,  S. T. Brown,  E. F. C. Byrd,  Arup K. Chakraborty,  
 G. K. L. Chan,  Chun-Min Chang,  Yunqing Chen,  C.-L. Cheng,  
 Siu Hung Chien,  D. M. Chipman,  D. L. Crittenden,  H. Dachsel,  
 R. J. Doerksen,  A. D. Dutoi,  R. G. Edgar,  J. Fosso-Tande,  
 L. Fusti-Molnar,  D. Ghosh,  A. Ghysels,  A. Golubeva-Zadorozhnaya,  
 J. Gonthier,  M. S. Gordon,  S. R. Gwaltney,  G. Hawkins,  J. E. Herr,  
 A. Heyden,  S. Hirata,  E. G. Hohenstein,  G. Kedziora,  F. J. Keil,  
 C. Kelley,  Jihan Kim,  R. A. King,  R. Z. Khaliullin,  P. P. Korambath,  
 W. Kurlancheek,  A. Laurent,  A. M. Lee,  M. S. Lee,  S. V. Levchenko,  
 Ching Yeh Lin,  D. Liotard,  E. Livshits,  R. C. Lochan,  I. Lotan,  
 L. A. Martinez-Martinez,  P. E. Maslen,  N. Nair,  D. P. O'Neill,  
 D. Neuhauser,  E. Neuscamman,  C. M. Oana,  R. Olivares-Amaya,  R. Olson,  
 T. M. Perrine,  B. Peters,  P. A. Pieniazek,  A. Prociuk,  Y. M. Rhee,  
 J. Ritchie,  M. A. Rohrdanz,  E. Rosta,  N. J. Russ,  H. F. Schaefer III,  
 M. W. Schmidt,  N. E. Schultz,  S. Sharma,  N. Shenvi,  C. D. Sherrill,  
 A. C. Simmonett,  A. Sodt,  T. Stein,  D. Stuck,  K. S. Thanthiriwatte,  
 V. Vanovschi,  L. Vogt,  Tao Wang,  A. Warshel,  M. A. Watson,  
 C. F. Williams,  Q. Wu,  X. Xu,  Jun Yang,  W. Zhang,  Yan Zhao

   Please cite Q-Chem as follows:
  "Software for the frontiers of quantum chemistry:
   An overview of developments in the Q-Chem 5 package"
   J. Chem. Phys. 155, 084801 (2021)
   https://doi.org/10.1063/5.0055522 (open access)

 Q-Chem 6.0.2 for Intel X86 EM64T Linux

 Parts of Q-Chem use Armadillo 9.900.5 (Nocturnal Misbehaviour).
 http://arma.sourceforge.net/

 Q-Chem begins on Tue Feb 20 15:56:33 2024  

 Host: 
0

     Scratch files written to /data/scratch/C_FeABstar_enol_ctL_C_3sextet_SkS_camb3lyp_augccpVDZ_pcmH2O_tddft10020240218083537//
 Dec722 |scratch|qcdevops|jenkins|workspace|build_RNUM 8907   
 Processing $rem in /opt/qchem/6.0.1/config/preferences:
 Processing $rem in /home/sgardner/.qchemrc:
 Symmetry turned off for PCM/SM12/SMD calculation

 Checking the input file for inconsistencies... 	...done.

--------------------------------------------------------------
User input:
--------------------------------------------------------------
$molecule
-2 6
C   -2.2496238    1.3623694   -2.3699220
C   -3.7181727   -0.8202696    1.9479104
H   -3.2435504   -0.5778733    2.9171162
N   -2.8268565   -1.6730349    1.1719181
H   -3.2176520   -2.6129590    1.0661820
C   -4.9909835   -1.6714986    2.2701248
O   -5.8945273   -1.0831460    2.9108757
C   -1.6570871   -1.3281780    0.6199004
O   -1.2338185   -0.1295772    0.7849514
N   -2.5436252    2.1558163   -1.3478349
C   -3.8615943    2.7051329   -0.9978289
H   -4.1483903    3.4680528   -1.7387248
H   -3.6822883    3.2189117   -0.0471109
C   -0.9115930   -2.3231899   -0.1142796
H   -1.2583068   -3.3563363   -0.0843928
C    0.2300620   -2.0140422   -0.8239271
C    1.0137174   -3.1076044   -1.5214367
H    0.8695113   -2.9994887   -2.6098432
H    0.6375340   -4.1048917   -1.2471112
C    2.5369156   -3.1003155   -1.3256200
O    3.2492912   -3.8122363   -2.0488439
N    3.0198530   -2.3172454   -0.3465404
H    2.3996465   -1.6944458    0.1663513
C    4.5437667   -1.1618433    1.1671706
O    5.7111087   -0.9033593    1.5473813
N    2.4162540    2.2088686   -0.4576684
C    2.0911256    2.0747245    0.8219591
C    3.0619944    2.3652754    1.9221722
H    2.5200056    2.8509660    2.7460650
H    3.4506101    1.3927503    2.2703941
H    3.8972230    3.0002914    1.6048113
C    3.7433522    2.5146596   -1.0045938
H    3.5587109    2.8089110   -2.0464240
H    4.1493518    3.3887509   -0.4758466
C    4.7092134    1.3302983   -0.9190122
H    5.6809498    1.6657261   -1.3237528
H    4.8918613    1.0874950    0.1379213
C    4.2255859    0.0896711   -1.6798565
H    3.1570612   -0.0757224   -1.4719489
H    4.2931224    0.2958808   -2.7623045
C    4.9979669   -1.1989503   -1.3506948
H    4.9798566   -1.8729500   -2.2200257
H    6.0545741   -0.9777644   -1.1281431
C    4.4217041   -1.9842377   -0.1471326
H    5.0094831   -2.9091417   -0.0299743
C   -4.9822824    1.6579308   -0.8592816
H   -5.8008142    2.1557746   -0.3102969
H   -5.3873559    1.4207916   -1.8551002
C   -3.2026009    1.1652193   -3.5094767
H   -3.9366937    1.9750656   -3.5964039
H   -2.6133449    1.1047684   -4.4353607
C   -4.6021587    0.3473645   -0.1597706
H   -3.8424841   -0.1806593   -0.7600242
H   -5.4910641   -0.3068179   -0.1589391
C   -4.0852902    0.5126820    1.2683944
H   -3.2079119    1.1709212    1.2687711
H   -4.8637198    0.9707714    1.8988355
O   -4.9885560   -2.8682928    1.8627872
O    3.4602185   -0.7923901    1.7089010
O    0.7191914   -0.8182812   -0.9842749
Fe   -0.1126912    0.9508808   -0.5431319
O   -1.1172155    0.7663304   -2.3676401
O   -1.5632555    2.3341677   -0.4161433
O    1.4554932    1.8818241   -1.3695622
O    0.9147994    1.6494134    1.0997761
H   -3.7374561    0.2097026   -3.3885121
$end

$rem
BASIS  =  gen
CIS_N_ROOTS  =  100
EXCHANGE  =  CAM-B3LYP
GUI  =  2
JOB_TYPE  =  SP
SCF_CONVERGENCE  =  8
SOLVENT_METHOD  =  PCM
UNRESTRICTED  =  1
BASIS GEN
PURECART 11
$end

$pcm
THEORY  CPCM
$end

$solvent
DIELECTRIC  78.39
$end

$van_der_waals
26   2.44
$end

!----------------------------------------------------------------------
! Basis Set Exchange
! Basis set: aug-cc-pVDZ
!----------------------------------------------------------------------

$basis
H     0
S   4   1.00
1.301000D+01           1.968500D-02
1.962000D+00           1.379770D-01
4.446000D-01           4.781480D-01
1.220000D-01           5.012400D-01
S   1   1.00
1.220000D-01           1.000000D+00
S   1   1.00
0.0297400              1.0000000
P   1   1.00
7.270000D-01           1.0000000
P   1   1.00
0.1410000              1.0000000
****
C     0
S   9   1.00
6.665000D+03           6.920000D-04
1.000000D+03           5.329000D-03
2.280000D+02           2.707700D-02
6.471000D+01           1.017180D-01
2.106000D+01           2.747400D-01
7.495000D+00           4.485640D-01
2.797000D+00           2.850740D-01
5.215000D-01           1.520400D-02
1.596000D-01          -3.191000D-03
S   9   1.00
6.665000D+03          -1.460000D-04
1.000000D+03          -1.154000D-03
2.280000D+02          -5.725000D-03
6.471000D+01          -2.331200D-02
2.106000D+01          -6.395500D-02
7.495000D+00          -1.499810D-01
2.797000D+00          -1.272620D-01
5.215000D-01           5.445290D-01
1.596000D-01           5.804960D-01
S   1   1.00
1.596000D-01           1.000000D+00
S   1   1.00
0.0469000              1.0000000
P   4   1.00
9.439000D+00           3.810900D-02
2.002000D+00           2.094800D-01
5.456000D-01           5.085570D-01
1.517000D-01           4.688420D-01
P   1   1.00
1.517000D-01           1.000000D+00
P   1   1.00
0.0404100              1.0000000
D   1   1.00
5.500000D-01           1.0000000
D   1   1.00
0.1510000              1.0000000
****
N     0
S   9   1.00
9.046000D+03           7.000000D-04
1.357000D+03           5.389000D-03
3.093000D+02           2.740600D-02
8.773000D+01           1.032070D-01
2.856000D+01           2.787230D-01
1.021000D+01           4.485400D-01
3.838000D+00           2.782380D-01
7.466000D-01           1.544000D-02
2.248000D-01          -2.864000D-03
S   9   1.00
9.046000D+03          -1.530000D-04
1.357000D+03          -1.208000D-03
3.093000D+02          -5.992000D-03
8.773000D+01          -2.454400D-02
2.856000D+01          -6.745900D-02
1.021000D+01          -1.580780D-01
3.838000D+00          -1.218310D-01
7.466000D-01           5.490030D-01
2.248000D-01           5.788150D-01
S   1   1.00
2.248000D-01           1.000000D+00
S   1   1.00
0.0612400              1.0000000
P   4   1.00
1.355000D+01           3.991900D-02
2.917000D+00           2.171690D-01
7.973000D-01           5.103190D-01
2.185000D-01           4.622140D-01
P   1   1.00
2.185000D-01           1.000000D+00
P   1   1.00
0.0561100              1.0000000
D   1   1.00
8.170000D-01           1.0000000
D   1   1.00
0.2300000              1.0000000
****
O     0
S   9   1.00
1.172000D+04           7.100000D-04
1.759000D+03           5.470000D-03
4.008000D+02           2.783700D-02
1.137000D+02           1.048000D-01
3.703000D+01           2.830620D-01
1.327000D+01           4.487190D-01
5.025000D+00           2.709520D-01
1.013000D+00           1.545800D-02
3.023000D-01          -2.585000D-03
S   9   1.00
1.172000D+04          -1.600000D-04
1.759000D+03          -1.263000D-03
4.008000D+02          -6.267000D-03
1.137000D+02          -2.571600D-02
3.703000D+01          -7.092400D-02
1.327000D+01          -1.654110D-01
5.025000D+00          -1.169550D-01
1.013000D+00           5.573680D-01
3.023000D-01           5.727590D-01
S   1   1.00
3.023000D-01           1.000000D+00
S   1   1.00
0.0789600              1.0000000
P   4   1.00
1.770000D+01           4.301800D-02
3.854000D+00           2.289130D-01
1.046000D+00           5.087280D-01
2.753000D-01           4.605310D-01
P   1   1.00
2.753000D-01           1.000000D+00
P   1   1.00
0.0685600              1.0000000
D   1   1.00
1.185000D+00           1.0000000
D   1   1.00
0.3320000              1.0000000
****
Fe     0
S   20   1.00
4.316265D+06           8.048803D-06
6.463424D+05           6.258306D-05
1.470897D+05           3.290239D-04
4.166152D+04           1.387355D-03
1.359077D+04           5.023256D-03
4.905750D+03           1.610140D-02
1.912746D+03           4.590034D-02
7.926043D+02           1.136154D-01
3.448065D+02           2.283869D-01
1.558999D+02           3.221159D-01
7.223091D+01           2.383661D-01
3.272506D+01           7.404667D-02
1.566762D+01           9.214197D-02
7.503483D+00           9.339790D-02
3.312223D+00           1.573965D-02
1.558471D+00          -4.186682D-04
6.839140D-01           5.376318D-05
1.467570D-01          -3.816654D-05
7.058300D-02           4.319603D-05
3.144900D-02          -3.401019D-06
S   20   1.00
4.316265D+06          -4.155954D-06
6.463424D+05          -3.231401D-05
1.470897D+05          -1.699525D-04
4.166152D+04          -7.171369D-04
1.359077D+04          -2.603625D-03
4.905750D+03          -8.399109D-03
1.912746D+03          -2.434109D-02
7.926043D+02          -6.251948D-02
3.448065D+02          -1.365929D-01
1.558999D+02          -2.312707D-01
7.223091D+01          -2.383734D-01
3.272506D+01           3.123837D-02
1.566762D+01           5.086818D-01
7.503483D+00           4.987695D-01
3.312223D+00           9.033552D-02
1.558471D+00          -6.005337D-03
6.839140D-01           2.312454D-04
1.467570D-01          -5.643680D-04
7.058300D-02           4.992260D-04
3.144900D-02          -1.015293D-04
S   20   1.00
4.316265D+06           9.532178D-07
6.463424D+05           7.414605D-06
1.470897D+05           3.898393D-05
4.166152D+04           1.647152D-04
1.359077D+04           5.985980D-04
4.905750D+03           1.942390D-03
1.912746D+03           5.687237D-03
7.926043D+02           1.501329D-02
3.448065D+02           3.452455D-02
1.558999D+02           6.495820D-02
7.223091D+01           7.716194D-02
3.272506D+01          -1.873411D-02
1.566762D+01          -3.009185D-01
7.503483D+00          -4.554661D-01
3.312223D+00           1.286463D-01
1.558471D+00           7.183316D-01
6.839140D-01           4.051743D-01
1.467570D-01           2.168227D-02
7.058300D-02          -8.343566D-03
3.144900D-02           3.658979D-03
S   20   1.00
4.316265D+06          -2.063008D-07
6.463424D+05          -1.604169D-06
1.470897D+05          -8.438437D-06
4.166152D+04          -3.563151D-05
1.359077D+04          -1.295998D-04
4.905750D+03          -4.201534D-04
1.912746D+03          -1.231954D-03
7.926043D+02          -3.248922D-03
3.448065D+02          -7.493717D-03
1.558999D+02          -1.410102D-02
7.223091D+01          -1.691600D-02
3.272506D+01           4.218996D-03
1.566762D+01           6.833810D-02
7.503483D+00           1.098201D-01
3.312223D+00          -4.009005D-02
1.558471D+00          -2.174739D-01
6.839140D-01          -2.465135D-01
1.467570D-01           2.731435D-01
7.058300D-02           5.748321D-01
3.144900D-02           3.012713D-01
S   20   1.00
4.316265D+06          -4.009367D-07
6.463424D+05          -3.189255D-06
1.470897D+05          -1.623079D-05
4.166152D+04          -7.157920D-05
1.359077D+04          -2.463958D-04
4.905750D+03          -8.544907D-04
1.912746D+03          -2.307593D-03
7.926043D+02          -6.728292D-03
3.448065D+02          -1.366165D-02
1.558999D+02          -3.062240D-02
7.223091D+01          -2.631137D-02
3.272506D+01          -9.760183D-03
1.566762D+01           1.801906D-01
7.503483D+00           1.529634D-01
3.312223D+00           5.505413D-02
1.558471D+00          -9.551364D-01
6.839140D-01           2.586813D-01
1.467570D-01           1.834049D+00
7.058300D-02          -9.333240D-01
3.144900D-02          -6.981605D-01
S   1   1.00
3.144900D-02           1.000000D+00
S   1   1.00
1.401000D-02           1.000000D+00
P   16   1.00
1.774569D+04           4.100000D-05
4.200721D+03           3.690000D-04
1.364429D+03           2.129000D-03
5.220806D+02           9.369000D-03
2.214595D+02           3.309700D-02
1.009096D+02           9.443100D-02
4.840115D+01           2.080770D-01
2.398536D+01           3.323330D-01
1.218250D+01           3.329870D-01
6.242298D+00           1.568430D-01
3.110944D+00           2.154900D-02
1.509958D+00          -2.095000D-03
7.108450D-01          -1.739000D-03
2.731900D-01          -3.000000D-04
1.042330D-01           2.900000D-05
3.829100D-02          -1.100000D-05
P   16   1.00
1.774569D+04          -1.500000D-05
4.200721D+03          -1.300000D-04
1.364429D+03          -7.510000D-04
5.220806D+02          -3.329000D-03
2.214595D+02          -1.191200D-02
1.009096D+02          -3.493300D-02
4.840115D+01          -7.998900D-02
2.398536D+01          -1.346360D-01
1.218250D+01          -1.385980D-01
6.242298D+00           3.027800D-02
3.110944D+00           3.332160D-01
1.509958D+00           4.561530D-01
7.108450D-01           2.850510D-01
2.731900D-01           4.614400D-02
1.042330D-01          -3.249000D-03
3.829100D-02           1.357000D-03
P   16   1.00
1.774569D+04           5.000000D-06
4.200721D+03           4.200000D-05
1.364429D+03           2.410000D-04
5.220806D+02           1.085000D-03
2.214595D+02           3.831000D-03
1.009096D+02           1.142300D-02
4.840115D+01           2.579200D-02
2.398536D+01           4.481800D-02
1.218250D+01           4.459800D-02
6.242298D+00          -1.117700D-02
3.110944D+00          -1.381340D-01
1.509958D+00          -1.882850D-01
7.108450D-01          -1.073990D-01
2.731900D-01           4.448630D-01
1.042330D-01           6.402390D-01
3.829100D-02           6.445700D-02
P   16   1.00
1.774569D+04           3.000000D-06
4.200721D+03           2.900000D-05
1.364429D+03           1.650000D-04
5.220806D+02           7.340000D-04
2.214595D+02           2.626000D-03
1.009096D+02           7.725000D-03
4.840115D+01           1.773300D-02
2.398536D+01           3.005500D-02
1.218250D+01           3.109400D-02
6.242298D+00          -1.004800D-02
3.110944D+00          -8.830600D-02
1.509958D+00          -1.298240D-01
7.108450D-01          -7.693700D-02
2.731900D-01           2.126610D-01
1.042330D-01           5.730610D-01
3.829100D-02           3.696510D-01
P   1   1.00
3.829100D-02           1.000000D+00
P   1   1.00
1.407000D-02           1.000000D+00
D   8   1.00
1.133440D+02           3.530000D-03
3.364140D+01           2.578400D-02
1.233100D+01           9.911900D-02
4.994780D+00           2.390730D-01
2.072800D+00           3.571990D-01
8.307530D-01           3.621880D-01
3.091780D-01           2.364610D-01
1.001300D-01           6.011800D-02
D   8   1.00
1.133440D+02          -3.890000D-03
3.364140D+01          -2.844200D-02
1.233100D+01          -1.124290D-01
4.994780D+00          -2.742570D-01
2.072800D+00          -3.155460D-01
8.307530D-01           5.710900D-02
3.091780D-01           5.636040D-01
1.001300D-01           3.846370D-01
D   1   1.00
1.001300D-01           1.000000D+00
D   1   1.00
3.243000D-02           1.000000D+00
F   2   1.00
3.224300D+00           4.222490D-01
7.758000D-01           7.714680D-01
F   1   1.00
2.749000D-01           1.000000D+00
****
$end


--------------------------------------------------------------
 ----------------------------------------------------------------
             Standard Nuclear Orientation (Angstroms)
    I     Atom           X                Y                Z
 ----------------------------------------------------------------
    1      C      -2.2496238000     1.3623694000    -2.3699220000
    2      C      -3.7181727000    -0.8202696000     1.9479104000
    3      H      -3.2435504000    -0.5778733000     2.9171162000
    4      N      -2.8268565000    -1.6730349000     1.1719181000
    5      H      -3.2176520000    -2.6129590000     1.0661820000
    6      C      -4.9909835000    -1.6714986000     2.2701248000
    7      O      -5.8945273000    -1.0831460000     2.9108757000
    8      C      -1.6570871000    -1.3281780000     0.6199004000
    9      O      -1.2338185000    -0.1295772000     0.7849514000
   10      N      -2.5436252000     2.1558163000    -1.3478349000
   11      C      -3.8615943000     2.7051329000    -0.9978289000
   12      H      -4.1483903000     3.4680528000    -1.7387248000
   13      H      -3.6822883000     3.2189117000    -0.0471109000
   14      C      -0.9115930000    -2.3231899000    -0.1142796000
   15      H      -1.2583068000    -3.3563363000    -0.0843928000
   16      C       0.2300620000    -2.0140422000    -0.8239271000
   17      C       1.0137174000    -3.1076044000    -1.5214367000
   18      H       0.8695113000    -2.9994887000    -2.6098432000
   19      H       0.6375340000    -4.1048917000    -1.2471112000
   20      C       2.5369156000    -3.1003155000    -1.3256200000
   21      O       3.2492912000    -3.8122363000    -2.0488439000
   22      N       3.0198530000    -2.3172454000    -0.3465404000
   23      H       2.3996465000    -1.6944458000     0.1663513000
   24      C       4.5437667000    -1.1618433000     1.1671706000
   25      O       5.7111087000    -0.9033593000     1.5473813000
   26      N       2.4162540000     2.2088686000    -0.4576684000
   27      C       2.0911256000     2.0747245000     0.8219591000
   28      C       3.0619944000     2.3652754000     1.9221722000
   29      H       2.5200056000     2.8509660000     2.7460650000
   30      H       3.4506101000     1.3927503000     2.2703941000
   31      H       3.8972230000     3.0002914000     1.6048113000
   32      C       3.7433522000     2.5146596000    -1.0045938000
   33      H       3.5587109000     2.8089110000    -2.0464240000
   34      H       4.1493518000     3.3887509000    -0.4758466000
   35      C       4.7092134000     1.3302983000    -0.9190122000
   36      H       5.6809498000     1.6657261000    -1.3237528000
   37      H       4.8918613000     1.0874950000     0.1379213000
   38      C       4.2255859000     0.0896711000    -1.6798565000
   39      H       3.1570612000    -0.0757224000    -1.4719489000
   40      H       4.2931224000     0.2958808000    -2.7623045000
   41      C       4.9979669000    -1.1989503000    -1.3506948000
   42      H       4.9798566000    -1.8729500000    -2.2200257000
   43      H       6.0545741000    -0.9777644000    -1.1281431000
   44      C       4.4217041000    -1.9842377000    -0.1471326000
   45      H       5.0094831000    -2.9091417000    -0.0299743000
   46      C      -4.9822824000     1.6579308000    -0.8592816000
   47      H      -5.8008142000     2.1557746000    -0.3102969000
   48      H      -5.3873559000     1.4207916000    -1.8551002000
   49      C      -3.2026009000     1.1652193000    -3.5094767000
   50      H      -3.9366937000     1.9750656000    -3.5964039000
   51      H      -2.6133449000     1.1047684000    -4.4353607000
   52      C      -4.6021587000     0.3473645000    -0.1597706000
   53      H      -3.8424841000    -0.1806593000    -0.7600242000
   54      H      -5.4910641000    -0.3068179000    -0.1589391000
   55      C      -4.0852902000     0.5126820000     1.2683944000
   56      H      -3.2079119000     1.1709212000     1.2687711000
   57      H      -4.8637198000     0.9707714000     1.8988355000
   58      O      -4.9885560000    -2.8682928000     1.8627872000
   59      O       3.4602185000    -0.7923901000     1.7089010000
   60      O       0.7191914000    -0.8182812000    -0.9842749000
   61      Fe     -0.1126912000     0.9508808000    -0.5431319000
   62      O      -1.1172155000     0.7663304000    -2.3676401000
   63      O      -1.5632555000     2.3341677000    -0.4161433000
   64      O       1.4554932000     1.8818241000    -1.3695622000
   65      O       0.9147994000     1.6494134000     1.0997761000
   66      H      -3.7374561000     0.2097026000    -3.3885121000
 ----------------------------------------------------------------
 Nuclear Repulsion Energy =        5367.90666874 hartrees
 There are      152 alpha and      147 beta electrons
 Requested basis set is non-standard
 There are 488 shells and 1148 basis functions

 Total QAlloc Memory Limit   8000 MB
 Mega-Array Size       188 MB
 MEM_STATIC part       192 MB

 Using C-PCM dielectric factor f(eps) = (eps-1)/eps = 0.987243
No default van der Waals radius is available for Z = 26
	Found R = 2.4400 A in the $van_der_waals section
 Discretize the solute cavity surface with Lebedev spheres
	Using 110 Lebedev grid points for each H atom
	Using 194 Lebedev grid points for other atoms
	Atomic van der Waals radii (Bondi set) will be scaled by 1.20
 Using smooth SwiG surface discretization
 Remove points where switching function is < 1.0e-08
 Keep 3812 surface tesserae and discard 6556 interior tesserae
 Molecular Surface Area = 483.728 Angst**2

 A cutoff of  1.0D-12 yielded 104299 shell pairs
 There are    550461 function pairs (    627432 Cartesian)
 Smallest overlap matrix eigenvalue = 1.01E-06

 Scale SEOQF with 1.000000e-02/1.000000e-01/1.000000e-01

 Standard Electronic Orientation quadrupole field applied
 Nucleus-field energy     =     0.0000000118 hartrees
 ================ Generating on-the-fly SAD Guess ================
 Attempting to make child job directory: /data/scratch/C_FeABstar_enol_ctL_C_3sextet_SkS_camb3lyp_augccpVDZ_pcmH2O_tddft10020240218083537//Frg1/
 Attempting to make child job directory: /data/scratch/C_FeABstar_enol_ctL_C_3sextet_SkS_camb3lyp_augccpVDZ_pcmH2O_tddft10020240218083537//Frg2/
 Attempting to make child job directory: /data/scratch/C_FeABstar_enol_ctL_C_3sextet_SkS_camb3lyp_augccpVDZ_pcmH2O_tddft10020240218083537//Frg3/
 Attempting to make child job directory: /data/scratch/C_FeABstar_enol_ctL_C_3sextet_SkS_camb3lyp_augccpVDZ_pcmH2O_tddft10020240218083537//Frg4/
 Attempting to make child job directory: /data/scratch/C_FeABstar_enol_ctL_C_3sextet_SkS_camb3lyp_augccpVDZ_pcmH2O_tddft10020240218083537//Frg5/
 Creating input file /data/scratch/C_FeABstar_enol_ctL_C_3sextet_SkS_camb3lyp_augccpVDZ_pcmH2O_tddft10020240218083537/Frg1.input
 using default PutDataFrgm: nothing
 calling putenv with: QCSCRATCH=/data/scratch/C_FeABstar_enol_ctL_C_3sextet_SkS_camb3lyp_augccpVDZ_pcmH2O_tddft10020240218083537/ 
 Spawning Job For Fragment 0
 Done Job For Fragment 0
 calling putenv with: QCSCRATCH=/data/scratch 
 calling putenv with: QCTHREADS=20 
 Creating input file /data/scratch/C_FeABstar_enol_ctL_C_3sextet_SkS_camb3lyp_augccpVDZ_pcmH2O_tddft10020240218083537/Frg2.input
 using default PutDataFrgm: nothing
 calling putenv with: QCSCRATCH=/data/scratch/C_FeABstar_enol_ctL_C_3sextet_SkS_camb3lyp_augccpVDZ_pcmH2O_tddft10020240218083537/ 
 Spawning Job For Fragment 1
 Done Job For Fragment 1
 calling putenv with: QCSCRATCH=/data/scratch 
 calling putenv with: QCTHREADS=20 
 Creating input file /data/scratch/C_FeABstar_enol_ctL_C_3sextet_SkS_camb3lyp_augccpVDZ_pcmH2O_tddft10020240218083537/Frg3.input
 using default PutDataFrgm: nothing
 calling putenv with: QCSCRATCH=/data/scratch/C_FeABstar_enol_ctL_C_3sextet_SkS_camb3lyp_augccpVDZ_pcmH2O_tddft10020240218083537/ 
 Spawning Job For Fragment 2
 Done Job For Fragment 2
 calling putenv with: QCSCRATCH=/data/scratch 
 calling putenv with: QCTHREADS=20 
 Creating input file /data/scratch/C_FeABstar_enol_ctL_C_3sextet_SkS_camb3lyp_augccpVDZ_pcmH2O_tddft10020240218083537/Frg4.input
 using default PutDataFrgm: nothing
 calling putenv with: QCSCRATCH=/data/scratch/C_FeABstar_enol_ctL_C_3sextet_SkS_camb3lyp_augccpVDZ_pcmH2O_tddft10020240218083537/ 
 Spawning Job For Fragment 3
 Done Job For Fragment 3
 calling putenv with: QCSCRATCH=/data/scratch 
 calling putenv with: QCTHREADS=20 
 Creating input file /data/scratch/C_FeABstar_enol_ctL_C_3sextet_SkS_camb3lyp_augccpVDZ_pcmH2O_tddft10020240218083537/Frg5.input
 using default PutDataFrgm: nothing
 calling putenv with: QCSCRATCH=/data/scratch/C_FeABstar_enol_ctL_C_3sextet_SkS_camb3lyp_augccpVDZ_pcmH2O_tddft10020240218083537/ 
 Spawning Job For Fragment 4
 Done Job For Fragment 4
 calling putenv with: QCSCRATCH=/data/scratch 
 calling putenv with: QCTHREADS=20 
 Time for running child jobs:  CPU 0.03 s  wall 115.06 s
 ============= Method Specific SAD Guess Constructed =============
 Guess from on-the-fly superposition of atomic densities
 Warning: Energy on first SCF cycle will be non-variational

 -----------------------------------------------------------------------
  General SCF calculation program by
  Eric Jon Sundstrom, Paul Horn, Yuezhi Mao, Dmitri Zuev, Alec White,
  David Stuck, Shaama M.S., Shane Yost, Joonho Lee, David Small,
  Daniel Levine, Susi Lehtola, Hugh Burton, Evgeny Epifanovsky,
  Bang C. Huynh
 -----------------------------------------------------------------------
 Exchange:     0.1900 Hartree-Fock + 0.3500 B88 + 0.4600 muB88 + LR-HF
 Correlation:  0.1900 VWN5 + 0.8100 LYP
 Using SG-1 standard quadrature grid
 using 20 threads for integral computing
 -------------------------------------------------------
 OpenMP Integral computing Module                
 Release: version 1.0, May 2013, Q-Chem Inc. Pittsburgh 
 -------------------------------------------------------
 C-PCM solvent model [f = (eps-1)/eps], solve by matrix inversion
 A unrestricted SCF calculation will be
 performed using DIIS
 SCF converges when DIIS error is below 1.0e-08
 ---------------------------------------
  Cycle       Energy         DIIS error
 ---------------------------------------
    1   -3147.6319927877      1.05e-02  
    2   -3126.8209520210      1.34e-03  
    3   -3126.3141960905      1.87e-03  
    4   -3127.8370720851      4.27e-04  
    5   -3127.8984045708      2.05e-04  
    6   -3127.9164750021      9.69e-05  
    7   -3127.9219226544      2.68e-05  
    8   -3127.9227648536      1.66e-05  
    9   -3127.9230981069      6.84e-06  
   10   -3127.9232115571      3.43e-06  
   11   -3127.9232525362      2.08e-06  
   12   -3127.9232720545      1.16e-06  
   13   -3127.9232771820      6.20e-07  
   14   -3127.9232784072      3.26e-07  
   15   -3127.9232786074      1.49e-07  
   16   -3127.9232786580      6.79e-08  
   17   -3127.9232786679      4.15e-08  
   18   -3127.9232786712      2.09e-08  
   19   -3127.9232786717      1.04e-08  
   20   -3127.9232786739      6.02e-09  Convergence criterion met
 ---------------------------------------
 SCF time:   CPU 310362.43s  wall 17707.00s 
<S^2> =          8.758108169

************** Final PCM Free Energy Summary **************
 G_electrostatic  =      -0.28111253 hartree =    -176.40077330 kcal/mol
 G_cavitation     =       0.00000000 hartree =       0.00000000 kcal/mol
 G_dispersion     =       0.00000000 hartree =       0.00000000 kcal/mol
 G_repulsion      =       0.00000000 hartree =       0.00000000 kcal/mol
 --------------------------------------------------
 Non-electrostatic Free Energy =       0.00000000 hartree =       0.00000000 kcal/mol
 Total                         =      -0.28111253 hartree =    -176.40077330 kcal/mol
 --------------------------------------------------
 SCF Energy (H0 + V/2)                       =   -3127.92327867 
 Solute Internal Energy (H0)                 =   -3127.64216615 
 Total Free Energy (H0 + V/2 + non-elec)     =   -3127.92327867 hartree
                                             = -1962801.48192927 kcal/mol
***********************************************************

 SCF   energy in the final basis set =    -3127.9232786739
 Total energy in the final basis set =    -3127.9232786739
 

 CIS/TDDFT memory preview:
 --------------------------
	NOV = NOa*NVa + NOb*NVb = 298539
	NRoots = 100, max iter = 30, max vectors = 3000
	Size of each subspace vector: 2.28 Mb
	Davidson algorithm may add up to 2 x NOV x NRoots (= 455.5 Mb) per iteration
	Max memory = 13666.0 Mb (worst case scenario)
	Currently available memory = 8000.0 Mb

	In case of problems:
	(a) increase memory (MEM_TOTAL = 13667 can hold 3000 subspace vectors), or
	(b) request fewer states (CIS_N_ROOTS = 58 will fit in current MEM_TOTAL), or
	(c) reduce MAX_CIS_SUBSPACE (= 1756 will fit in current MEM_TOTAL).
	Reducing MAX_CIS_SUBSPACE may hamper convergence.

 Direct TDDFT/TDA calculation will be performed
 Exchange:     0.1900 Hartree-Fock + 0.3500 B88 + 0.4600 muB88 + LR-HF
 Correlation:  0.1900 VWN5 + 0.8100 LYP
 Using SG-1 standard quadrature grid
 Adding PCM contribution to the XC response (LR-PCM)
 CIS energy converged when residual is below 10e- 6
 ---------------------------------------------------
 Iter    Rts Conv    Rts Left    Ttl Dev     Max Dev
 ---------------------------------------------------
   1         0         100      0.006266    0.000326
   2         0         100      0.005525    0.000137
   3         0         100      0.004912    0.000140
   4         0         100      0.003404    0.000086
   5        14          86      0.002299    0.000072
   6        20          80      0.001421    0.000078
   7        30          70      0.000664    0.000046
   8        51          49      0.000326    0.000019
   9        66          34      0.000151    0.000018
  10        87          13      0.000054    0.000007
  11        98           2      0.000027    0.000002
  12       100           0      0.000021    0.000001    Roots Converged
 ---------------------------------------------------
 
 ---------------------------------------------------
         TDDFT/TDA Excitation Energies              
 ---------------------------------------------------

 Excited state   1: excitation energy (eV) =    2.3413
 Total energy for state  1:                 -3127.83723607 au
    <S**2>     :  8.7973
    Trans. Mom.:  0.1109 X   0.0114 Y  -0.0145 Z
    Strength   :     0.0007245109
    D(  146) --> S(    1) amplitude = -0.3322 beta
    D(  147) --> S(    1) amplitude =  0.8500 beta
    D(  147) --> S(    2) amplitude = -0.3263 beta

 Excited state   2: excitation energy (eV) =    2.4891
 Total energy for state  2:                 -3127.83180561 au
    <S**2>     :  8.7983
    Trans. Mom.:  0.1891 X   0.2285 Y  -0.0311 Z
    Strength   :     0.0054232777
    D(  145) --> S(    1) amplitude =  0.4398 beta
    D(  146) --> S(    2) amplitude = -0.2840 beta
    D(  147) --> S(    1) amplitude =  0.3206 beta
    D(  147) --> S(    2) amplitude =  0.7337 beta

 Excited state   3: excitation energy (eV) =    2.5714
 Total energy for state  3:                 -3127.82878006 au
    <S**2>     :  8.8088
    Trans. Mom.: -0.0378 X  -0.1456 Y   0.0250 Z
    Strength   :     0.0014646343
    D(  145) --> S(    1) amplitude =  0.7093 beta
    D(  145) --> S(    2) amplitude = -0.4586 beta
    D(  145) --> S(    3) amplitude =  0.1505 beta
    D(  147) --> S(    2) amplitude = -0.4338 beta

 Excited state   4: excitation energy (eV) =    2.6294
 Total energy for state  4:                 -3127.82664856 au
    <S**2>     :  8.7807
    Trans. Mom.: -0.9030 X   0.0234 Y  -0.2691 Z
    Strength   :     0.0572320054
    D(  146) --> S(    3) amplitude = -0.3424 beta
    D(  147) --> S(    3) amplitude =  0.8995 beta

 Excited state   5: excitation energy (eV) =    2.7075
 Total energy for state  5:                 -3127.82378157 au
    <S**2>     :  8.8119
    Trans. Mom.: -0.3105 X   0.0199 Y  -0.0344 Z
    Strength   :     0.0065004448
    D(  145) --> S(    1) amplitude =  0.4092 beta
    D(  145) --> S(    2) amplitude =  0.7893 beta
    D(  145) --> S(    3) amplitude =  0.3367 beta

 Excited state   6: excitation energy (eV) =    2.9873
 Total energy for state  6:                 -3127.81349824 au
    <S**2>     :  8.8981
    Trans. Mom.:  0.2688 X   0.6876 Y  -0.2154 Z
    Strength   :     0.0432808155
    D(  145) --> S(    1) amplitude = -0.2313 beta
    D(  145) --> S(    2) amplitude = -0.2061 beta
    D(  145) --> S(    3) amplitude =  0.6898 beta
    D(  146) --> S(    1) amplitude =  0.4383 beta
    D(  146) --> S(    3) amplitude =  0.1764 beta
    D(  147) --> S(    1) amplitude =  0.1935 beta

 Excited state   7: excitation energy (eV) =    3.1363
 Total energy for state  7:                 -3127.80802267 au
    <S**2>     :  9.1691
    Trans. Mom.:  0.1201 X  -0.0342 Y  -0.0523 Z
    Strength   :     0.0014084511
    S(    5) --> V(    5) amplitude = -0.1786 alpha
    D(  145) --> S(    3) amplitude = -0.4405 beta
    D(  146) --> S(    1) amplitude =  0.6790 beta
    D(  147) --> S(    1) amplitude =  0.2452 beta

 Excited state   8: excitation energy (eV) =    3.2577
 Total energy for state  8:                 -3127.80356033 au
    <S**2>     :  8.8638
    Trans. Mom.:  0.0262 X   0.0545 Y  -0.0315 Z
    Strength   :     0.0003709387
    D(  146) --> S(    2) amplitude =  0.8415 beta
    D(  146) --> S(    3) amplitude = -0.2049 beta
    D(  147) --> S(    2) amplitude =  0.2911 beta

 Excited state   9: excitation energy (eV) =    3.4287
 Total energy for state  9:                 -3127.79727595 au
    <S**2>     :  8.8165
    Trans. Mom.: -0.1073 X  -0.0712 Y   0.0024 Z
    Strength   :     0.0013940578
    D(  146) --> S(    3) amplitude = -0.5463 beta
    D(  146) --> S(    4) amplitude = -0.2879 beta
    D(  147) --> S(    3) amplitude = -0.1939 beta
    D(  147) --> S(    4) amplitude =  0.6282 beta

 Excited state  10: excitation energy (eV) =    3.4340
 Total energy for state 10:                 -3127.79708199 au
    <S**2>     :  8.8095
    Trans. Mom.: -0.0161 X   0.0158 Y   0.0705 Z
    Strength   :     0.0004604012
    D(  145) --> S(    3) amplitude = -0.1815 beta
    D(  146) --> S(    3) amplitude =  0.6275 beta
    D(  146) --> S(    4) amplitude = -0.1774 beta
    D(  147) --> S(    3) amplitude =  0.2554 beta
    D(  147) --> S(    4) amplitude =  0.5657 beta

 Excited state  11: excitation energy (eV) =    3.6068
 Total energy for state 11:                 -3127.79073067 au
    <S**2>     :  8.8606
    Trans. Mom.: -0.0056 X  -0.0171 Y   0.0175 Z
    Strength   :     0.0000553598
    D(  145) --> S(    4) amplitude =  0.6827 beta
    D(  145) --> S(    5) amplitude = -0.2278 beta
    D(  146) --> S(    5) amplitude =  0.2107 beta
    D(  147) --> S(    5) amplitude = -0.5534 beta

 Excited state  12: excitation energy (eV) =    3.6681
 Total energy for state 12:                 -3127.78847771 au
    <S**2>     :  9.9874
    Trans. Mom.:  0.1493 X   0.2310 Y  -0.0748 Z
    Strength   :     0.0073003144
    S(    5) --> V(    2) amplitude =  0.3365 alpha
    S(    5) --> V(    5) amplitude =  0.4264 alpha
    D(  146) --> S(    1) amplitude =  0.3152 beta
    D(  146) --> S(    2) amplitude =  0.1603 beta
    D(  146) --> S(    4) amplitude = -0.3012 beta
    D(  146) --> S(    5) amplitude = -0.1689 beta
    D(  146) --> V(    5) amplitude =  0.1724 beta
    D(  146) --> V(    8) amplitude =  0.2900 beta
    D(  147) --> S(    5) amplitude = -0.2268 beta

 Excited state  13: excitation energy (eV) =    3.7680
 Total energy for state 13:                 -3127.78480777 au
    <S**2>     :  8.8078
    Trans. Mom.: -0.0600 X   0.0097 Y   0.0294 Z
    Strength   :     0.0004204604
    D(  135) --> S(    1) amplitude =  0.5537 beta
    D(  138) --> S(    1) amplitude =  0.4912 beta
    D(  139) --> S(    1) amplitude =  0.3594 beta
    D(  140) --> S(    1) amplitude =  0.2306 beta
    D(  143) --> S(    1) amplitude = -0.1516 beta
    D(  144) --> S(    1) amplitude = -0.2786 beta

 Excited state  14: excitation energy (eV) =    3.8240
 Total energy for state 14:                 -3127.78274806 au
    <S**2>     :  8.8556
    Trans. Mom.: -0.0019 X   0.0094 Y  -0.0373 Z
    Strength   :     0.0001391615
    D(  145) --> S(    4) amplitude =  0.5781 beta
    D(  146) --> S(    5) amplitude = -0.2414 beta
    D(  147) --> S(    4) amplitude =  0.2309 beta
    D(  147) --> S(    5) amplitude =  0.5935 beta
    D(  147) --> V(    8) amplitude =  0.1605 beta

 Excited state  15: excitation energy (eV) =    3.9240
 Total energy for state 15:                 -3127.77907510 au
    <S**2>     :  8.8116
    Trans. Mom.: -0.0824 X  -0.2831 Y   0.0658 Z
    Strength   :     0.0087726873
    D(  135) --> S(    2) amplitude =  0.5402 beta
    D(  138) --> S(    2) amplitude =  0.4769 beta
    D(  139) --> S(    2) amplitude =  0.3460 beta
    D(  140) --> S(    2) amplitude =  0.2246 beta
    D(  144) --> S(    2) amplitude = -0.2642 beta

 Excited state  16: excitation energy (eV) =    3.9639
 Total energy for state 16:                 -3127.77760635 au
    <S**2>     :  8.8000
    Trans. Mom.: -0.1568 X  -0.0144 Y  -0.0385 Z
    Strength   :     0.0025527769
    D(  145) --> S(    5) amplitude =  0.8552 beta
    D(  145) --> V(    8) amplitude =  0.1863 beta
    D(  146) --> S(    5) amplitude =  0.1829 beta
    D(  147) --> S(    4) amplitude =  0.1545 beta

 Excited state  17: excitation energy (eV) =    4.0317
 Total energy for state 17:                 -3127.77511563 au
    <S**2>     :  8.7821
    Trans. Mom.:  0.0434 X   0.0902 Y   0.0224 Z
    Strength   :     0.0010385178
    D(  135) --> S(    1) amplitude = -0.1621 beta
    D(  135) --> S(    3) amplitude =  0.5583 beta
    D(  138) --> S(    3) amplitude =  0.4773 beta
    D(  139) --> S(    3) amplitude =  0.3461 beta
    D(  140) --> S(    3) amplitude =  0.2164 beta
    D(  144) --> S(    3) amplitude = -0.2662 beta

 Excited state  18: excitation energy (eV) =    4.1450
 Total energy for state 18:                 -3127.77095374 au
    <S**2>     : 10.4657
    Trans. Mom.: -0.0302 X   0.0037 Y  -0.0037 Z
    Strength   :     0.0000951839
    S(    3) --> V(   13) amplitude = -0.2272 alpha
    S(    3) --> V(   14) amplitude = -0.1557 alpha
    S(    3) --> V(   16) amplitude = -0.2526 alpha
    S(    3) --> V(   17) amplitude =  0.2707 alpha
    S(    3) --> V(   19) amplitude =  0.1592 alpha
    S(    4) --> V(   16) amplitude =  0.1691 alpha
    S(    4) --> V(   17) amplitude = -0.1614 alpha
    D(  145) --> V(   16) amplitude = -0.1757 beta
    D(  145) --> V(   17) amplitude = -0.1715 beta
    D(  145) --> V(   18) amplitude =  0.1635 beta
    D(  147) --> V(   16) amplitude = -0.2014 beta
    D(  147) --> V(   17) amplitude = -0.1861 beta
    D(  147) --> V(   18) amplitude =  0.1677 beta

 Excited state  19: excitation energy (eV) =    4.2991
 Total energy for state 19:                 -3127.76528877 au
    <S**2>     : 10.4205
    Trans. Mom.:  0.0147 X   0.0018 Y   0.0052 Z
    Strength   :     0.0000260727
    S(    3) --> V(   18) amplitude = -0.1952 alpha
    S(    4) --> V(   17) amplitude = -0.2433 alpha
    S(    4) --> V(   18) amplitude = -0.3231 alpha
    S(    4) --> V(   19) amplitude =  0.1738 alpha
    S(    4) --> V(   20) amplitude = -0.1740 alpha
    S(    4) --> V(   25) amplitude =  0.1675 alpha
    D(  145) --> V(   18) amplitude = -0.1798 beta
    D(  145) --> V(   20) amplitude = -0.2125 beta
    D(  145) --> V(   25) amplitude =  0.1875 beta
    D(  147) --> V(   18) amplitude =  0.2014 beta
    D(  147) --> V(   20) amplitude =  0.2045 beta
    D(  147) --> V(   25) amplitude = -0.1832 beta

 Excited state  20: excitation energy (eV) =    4.3853
 Total energy for state 20:                 -3127.76212170 au
    <S**2>     :  8.8512
    Trans. Mom.:  0.2557 X   0.0091 Y  -0.1761 Z
    Strength   :     0.0103659207
    D(  133) --> S(    2) amplitude = -0.4254 beta
    D(  133) --> S(    3) amplitude =  0.2042 beta
    D(  134) --> S(    1) amplitude = -0.3195 beta
    D(  134) --> S(    2) amplitude =  0.1805 beta
    D(  134) --> S(    3) amplitude = -0.2169 beta
    D(  146) --> S(    4) amplitude =  0.4349 beta
    D(  146) --> S(    5) amplitude = -0.2590 beta
    D(  147) --> S(    4) amplitude =  0.1720 beta

 Excited state  21: excitation energy (eV) =    4.3950
 Total energy for state 21:                 -3127.76176528 au
    <S**2>     :  8.7915
    Trans. Mom.: -0.1946 X   0.0483 Y  -0.1078 Z
    Strength   :     0.0055829373
    D(  132) --> S(    3) amplitude =  0.1766 beta
    D(  133) --> S(    1) amplitude = -0.3089 beta
    D(  133) --> S(    2) amplitude = -0.2015 beta
    D(  133) --> S(    3) amplitude =  0.2788 beta
    D(  134) --> S(    1) amplitude =  0.5917 beta
    D(  134) --> S(    3) amplitude = -0.3812 beta

 Excited state  22: excitation energy (eV) =    4.3985
 Total energy for state 22:                 -3127.76163583 au
    <S**2>     :  8.8283
    Trans. Mom.:  0.0102 X  -0.1123 Y  -0.0986 Z
    Strength   :     0.0024176592
    D(  133) --> S(    1) amplitude = -0.2419 beta
    D(  133) --> S(    2) amplitude =  0.3931 beta
    D(  134) --> S(    2) amplitude = -0.1859 beta
    D(  146) --> S(    4) amplitude =  0.5699 beta
    D(  146) --> S(    5) amplitude = -0.2527 beta
    D(  147) --> S(    4) amplitude =  0.2366 beta

 Excited state  23: excitation energy (eV) =    4.4453
 Total energy for state 23:                 -3127.75991693 au
    <S**2>     :  8.8081
    Trans. Mom.:  0.2118 X   0.1260 Y  -0.1850 Z
    Strength   :     0.0103435420
    D(  126) --> S(    1) amplitude =  0.1615 beta
    D(  131) --> S(    1) amplitude = -0.3019 beta
    D(  133) --> S(    1) amplitude =  0.3300 beta
    D(  133) --> S(    2) amplitude = -0.1677 beta
    D(  134) --> S(    1) amplitude =  0.4267 beta
    D(  134) --> S(    3) amplitude =  0.4504 beta
    D(  136) --> S(    1) amplitude = -0.2087 beta
    D(  146) --> S(    4) amplitude =  0.2780 beta

 Excited state  24: excitation energy (eV) =    4.4578
 Total energy for state 24:                 -3127.75945742 au
    <S**2>     :  8.7952
    Trans. Mom.: -0.0030 X  -0.1019 Y   0.0172 Z
    Strength   :     0.0011677153
    D(  131) --> S(    1) amplitude =  0.1545 beta
    D(  131) --> S(    3) amplitude = -0.2266 beta
    D(  133) --> S(    1) amplitude = -0.4847 beta
    D(  133) --> S(    3) amplitude =  0.1734 beta
    D(  134) --> S(    2) amplitude =  0.3933 beta
    D(  134) --> S(    3) amplitude =  0.4692 beta
    D(  136) --> S(    1) amplitude =  0.1949 beta

 Excited state  25: excitation energy (eV) =    4.4809
 Total energy for state 25:                 -3127.75860735 au
    <S**2>     :  8.8524
    Trans. Mom.:  0.4785 X  -0.1442 Y  -0.2456 Z
    Strength   :     0.0340422411
    S(    5) --> V(    5) amplitude =  0.1608 alpha
    D(  134) --> S(    1) amplitude = -0.2113 beta
    D(  134) --> S(    3) amplitude = -0.1819 beta
    D(  146) --> S(    4) amplitude =  0.2243 beta
    D(  146) --> S(    5) amplitude =  0.7032 beta
    D(  146) --> V(    8) amplitude =  0.1727 beta
    D(  147) --> S(    5) amplitude =  0.2641 beta

 Excited state  26: excitation energy (eV) =    4.5946
 Total energy for state 26:                 -3127.75443034 au
    <S**2>     :  8.8412
    Trans. Mom.:  0.0353 X  -0.1345 Y   0.0254 Z
    Strength   :     0.0022483184
    D(  126) --> S(    2) amplitude = -0.1672 beta
    D(  131) --> S(    1) amplitude =  0.1751 beta
    D(  131) --> S(    2) amplitude =  0.3386 beta
    D(  133) --> S(    2) amplitude = -0.2710 beta
    D(  134) --> S(    2) amplitude = -0.5938 beta
    D(  134) --> S(    3) amplitude =  0.2431 beta
    D(  136) --> S(    1) amplitude =  0.2818 beta
    D(  136) --> S(    2) amplitude =  0.1753 beta
    D(  139) --> S(    1) amplitude = -0.1831 beta

 Excited state  27: excitation energy (eV) =    4.6486
 Total energy for state 27:                 -3127.75244737 au
    <S**2>     :  8.8590
    Trans. Mom.: -0.0218 X   0.0726 Y   0.0048 Z
    Strength   :     0.0006569508
    D(  131) --> S(    3) amplitude =  0.2442 beta
    D(  133) --> S(    3) amplitude = -0.4967 beta
    D(  134) --> S(    2) amplitude =  0.4154 beta
    D(  134) --> S(    3) amplitude = -0.1757 beta
    D(  136) --> S(    1) amplitude =  0.3026 beta
    D(  136) --> S(    3) amplitude =  0.3095 beta
    D(  139) --> S(    1) amplitude = -0.1927 beta
    D(  139) --> S(    3) amplitude = -0.1517 beta

 Excited state  28: excitation energy (eV) =    4.6635
 Total energy for state 28:                 -3127.75189893 au
    <S**2>     :  8.9167
    Trans. Mom.: -0.0894 X  -0.0693 Y   0.0986 Z
    Strength   :     0.0025742308
    D(  133) --> S(    1) amplitude =  0.4626 beta
    D(  133) --> S(    3) amplitude =  0.3655 beta
    D(  136) --> S(    1) amplitude =  0.4127 beta
    D(  136) --> S(    2) amplitude = -0.2295 beta
    D(  138) --> S(    1) amplitude =  0.1698 beta
    D(  139) --> S(    1) amplitude = -0.3101 beta

 Excited state  29: excitation energy (eV) =    4.7590
 Total energy for state 29:                 -3127.74838999 au
    <S**2>     :  8.8635
    Trans. Mom.: -0.0567 X   0.0158 Y   0.0735 Z
    Strength   :     0.0010331440
    D(  131) --> S(    2) amplitude =  0.2110 beta
    D(  133) --> S(    2) amplitude =  0.4173 beta
    D(  133) --> S(    3) amplitude =  0.2235 beta
    D(  134) --> S(    2) amplitude =  0.2036 beta
    D(  136) --> S(    2) amplitude =  0.5142 beta
    D(  138) --> S(    2) amplitude =  0.2006 beta
    D(  139) --> S(    2) amplitude = -0.3788 beta

 Excited state  30: excitation energy (eV) =    4.9086
 Total energy for state 30:                 -3127.74289249 au
    <S**2>     :  8.9085
    Trans. Mom.:  0.0828 X   0.0704 Y  -0.0758 Z
    Strength   :     0.0021102387
    D(  131) --> S(    1) amplitude =  0.1667 beta
    D(  131) --> S(    2) amplitude = -0.1880 beta
    D(  132) --> S(    1) amplitude = -0.3008 beta
    D(  132) --> S(    2) amplitude =  0.1909 beta
    D(  133) --> S(    2) amplitude = -0.1580 beta
    D(  135) --> S(    4) amplitude =  0.2163 beta
    D(  136) --> S(    3) amplitude =  0.3948 beta
    D(  138) --> S(    4) amplitude =  0.1858 beta
    D(  139) --> S(    3) amplitude = -0.2811 beta
    D(  139) --> S(    4) amplitude =  0.1576 beta

 Excited state  31: excitation energy (eV) =    4.9274
 Total energy for state 31:                 -3127.74220133 au
    <S**2>     :  9.1664
    Trans. Mom.:  0.0196 X   0.1638 Y   0.0484 Z
    Strength   :     0.0035685062
    D(  128) --> S(    1) amplitude = -0.1743 beta
    D(  129) --> S(    1) amplitude =  0.1559 beta
    D(  131) --> S(    1) amplitude =  0.3328 beta
    D(  132) --> S(    1) amplitude =  0.1610 beta
    D(  132) --> S(    2) amplitude = -0.1748 beta
    D(  133) --> S(    3) amplitude =  0.1771 beta
    D(  134) --> S(    1) amplitude =  0.1647 beta
    D(  135) --> S(    4) amplitude = -0.2341 beta
    D(  136) --> S(    1) amplitude = -0.1682 beta
    D(  136) --> S(    2) amplitude = -0.1865 beta
    D(  136) --> S(    3) amplitude =  0.2306 beta
    D(  138) --> S(    4) amplitude = -0.2241 beta
    D(  139) --> S(    3) amplitude = -0.1525 beta

 Excited state  32: excitation energy (eV) =    4.9451
 Total energy for state 32:                 -3127.74154802 au
    <S**2>     :  9.0092
    Trans. Mom.: -0.0682 X  -0.0026 Y  -0.0756 Z
    Strength   :     0.0012574525
    D(  124) --> S(    1) amplitude = -0.1680 beta
    D(  130) --> S(    1) amplitude =  0.2386 beta
    D(  132) --> S(    1) amplitude = -0.5771 beta
    D(  132) --> S(    2) amplitude =  0.2573 beta
    D(  133) --> S(    1) amplitude =  0.1821 beta
    D(  133) --> S(    2) amplitude = -0.1728 beta
    D(  133) --> S(    3) amplitude = -0.1631 beta
    D(  135) --> S(    4) amplitude = -0.2564 beta
    D(  136) --> S(    3) amplitude = -0.1703 beta
    D(  138) --> S(    4) amplitude = -0.2244 beta
    D(  139) --> S(    4) amplitude = -0.1632 beta

 Excited state  33: excitation energy (eV) =    4.9571
 Total energy for state 33:                 -3127.74110856 au
    <S**2>     :  8.8358
    Trans. Mom.: -0.0029 X   0.1184 Y  -0.0193 Z
    Strength   :     0.0017487494
    D(  128) --> S(    1) amplitude =  0.2588 beta
    D(  129) --> S(    1) amplitude = -0.2196 beta
    D(  131) --> S(    1) amplitude = -0.4681 beta
    D(  132) --> S(    1) amplitude = -0.2353 beta
    D(  132) --> S(    2) amplitude = -0.2224 beta
    D(  133) --> S(    3) amplitude =  0.1830 beta
    D(  134) --> S(    1) amplitude = -0.2728 beta
    D(  136) --> S(    3) amplitude =  0.3219 beta
    D(  139) --> S(    3) amplitude = -0.2192 beta

 Excited state  34: excitation energy (eV) =    5.0278
 Total energy for state 34:                 -3127.73850883 au
    <S**2>     :  9.0820
    Trans. Mom.: -0.4097 X  -0.1975 Y   0.1041 Z
    Strength   :     0.0268189796
    D(  128) --> S(    2) amplitude = -0.2612 beta
    D(  129) --> S(    2) amplitude =  0.2574 beta
    D(  131) --> S(    2) amplitude =  0.4933 beta
    D(  132) --> S(    1) amplitude = -0.1684 beta
    D(  132) --> S(    2) amplitude =  0.1958 beta
    D(  134) --> S(    2) amplitude =  0.2272 beta
    D(  136) --> S(    2) amplitude = -0.2085 beta

 Excited state  35: excitation energy (eV) =    5.0362
 Total energy for state 35:                 -3127.73820194 au
    <S**2>     :  8.9873
    Trans. Mom.: -0.1723 X  -0.0630 Y   0.2729 Z
    Strength   :     0.0133440779
    S(    1) --> V(    2) amplitude =  0.1525 alpha
    S(    1) --> V(    5) amplitude =  0.1895 alpha
    S(    2) --> V(    2) amplitude =  0.1540 alpha
    S(    2) --> V(    5) amplitude =  0.1932 alpha
    D(  131) --> S(    2) amplitude = -0.1684 beta
    D(  132) --> S(    1) amplitude =  0.1651 beta
    D(  132) --> S(    2) amplitude =  0.1761 beta
    D(  135) --> S(    4) amplitude = -0.3463 beta
    D(  135) --> S(    5) amplitude =  0.1792 beta
    D(  138) --> S(    4) amplitude = -0.2842 beta
    D(  138) --> S(    5) amplitude =  0.1812 beta
    D(  139) --> S(    4) amplitude = -0.2375 beta
    D(  144) --> S(    4) amplitude =  0.1702 beta

 Excited state  36: excitation energy (eV) =    5.0548
 Total energy for state 36:                 -3127.73751853 au
    <S**2>     :  8.9637
    Trans. Mom.: -0.0286 X  -0.1534 Y   0.0404 Z
    Strength   :     0.0032160854
    S(    1) --> V(    5) amplitude = -0.1507 alpha
    S(    2) --> V(    5) amplitude = -0.1554 alpha
    D(  130) --> S(    2) amplitude = -0.2089 beta
    D(  131) --> S(    3) amplitude = -0.1667 beta
    D(  132) --> S(    1) amplitude =  0.3160 beta
    D(  132) --> S(    2) amplitude =  0.5496 beta
    D(  133) --> S(    2) amplitude = -0.1531 beta

 Excited state  37: excitation energy (eV) =    5.1311
 Total energy for state 37:                 -3127.73471596 au
    <S**2>     :  9.1016
    Trans. Mom.:  0.6398 X   0.3311 Y  -0.4441 Z
    Strength   :     0.0900328542
    S(    1) --> V(    5) amplitude =  0.1520 alpha
    S(    5) --> V(    5) amplitude =  0.1775 alpha
    D(  129) --> S(    1) amplitude =  0.1633 beta
    D(  135) --> S(    5) amplitude = -0.3170 beta
    D(  136) --> S(    3) amplitude =  0.1521 beta
    D(  138) --> S(    5) amplitude = -0.2462 beta
    D(  139) --> S(    5) amplitude = -0.2601 beta
    D(  144) --> S(    5) amplitude =  0.1613 beta
    D(  147) --> V(    8) amplitude = -0.1782 beta

 Excited state  38: excitation energy (eV) =    5.1455
 Total energy for state 38:                 -3127.73418669 au
    <S**2>     : 10.5170
    Trans. Mom.:  0.0510 X   0.0783 Y  -0.0863 Z
    Strength   :     0.0020395687
    S(    2) --> V(   26) amplitude =  0.1543 alpha
    S(    2) --> V(   27) amplitude =  0.1572 alpha
    D(  144) --> V(   26) amplitude = -0.1528 beta

 Excited state  39: excitation energy (eV) =    5.1675
 Total energy for state 39:                 -3127.73337666 au
    <S**2>     :  8.9375
    Trans. Mom.:  0.0586 X  -0.0870 Y   0.0668 Z
    Strength   :     0.0019572944
    D(  124) --> S(    3) amplitude =  0.1658 beta
    D(  130) --> S(    3) amplitude = -0.2972 beta
    D(  132) --> S(    3) amplitude =  0.7211 beta
    D(  133) --> S(    3) amplitude = -0.3144 beta
    D(  134) --> S(    3) amplitude =  0.1899 beta

 Excited state  40: excitation energy (eV) =    5.2214
 Total energy for state 40:                 -3127.73139592 au
    <S**2>     :  8.8818
    Trans. Mom.: -0.0173 X  -0.0002 Y   0.0157 Z
    Strength   :     0.0000699358
    D(  131) --> S(    3) amplitude =  0.1929 beta
    D(  142) --> S(    1) amplitude =  0.7581 beta
    D(  142) --> S(    2) amplitude =  0.1530 beta
    D(  143) --> S(    1) amplitude = -0.4666 beta

 Excited state  41: excitation energy (eV) =    5.2266
 Total energy for state 41:                 -3127.73120599 au
    <S**2>     :  9.2774
    Trans. Mom.:  0.0978 X   0.1261 Y   0.0053 Z
    Strength   :     0.0032637516
    D(  139) --> V(    5) amplitude =  0.1651 alpha
    D(  143) --> V(    5) amplitude =  0.1585 alpha
    D(  128) --> S(    3) amplitude =  0.1908 beta
    D(  129) --> S(    3) amplitude = -0.1673 beta
    D(  131) --> S(    3) amplitude = -0.4214 beta
    D(  134) --> S(    3) amplitude = -0.1690 beta
    D(  136) --> S(    4) amplitude = -0.1723 beta
    D(  138) --> S(    5) amplitude = -0.1790 beta
    D(  142) --> S(    1) amplitude =  0.3054 beta
    D(  143) --> S(    1) amplitude = -0.1635 beta

 Excited state  42: excitation energy (eV) =    5.3098
 Total energy for state 42:                 -3127.72814688 au
    <S**2>     :  9.0917
    Trans. Mom.:  0.6459 X   0.4043 Y  -0.3241 Z
    Strength   :     0.0892032904
    D(  128) --> S(    3) amplitude = -0.1821 beta
    D(  129) --> S(    3) amplitude =  0.1813 beta
    D(  131) --> S(    3) amplitude =  0.3545 beta
    D(  132) --> S(    2) amplitude =  0.1622 beta
    D(  134) --> S(    3) amplitude =  0.1544 beta
    D(  136) --> S(    4) amplitude = -0.1863 beta
    D(  138) --> S(    5) amplitude = -0.1621 beta
    D(  142) --> S(    2) amplitude =  0.2138 beta
    D(  143) --> S(    2) amplitude = -0.1750 beta
    D(  144) --> S(    1) amplitude =  0.1612 beta

 Excited state  43: excitation energy (eV) =    5.3234
 Total energy for state 43:                 -3127.72764839 au
    <S**2>     :  8.8559
    Trans. Mom.: -0.3565 X   0.0829 Y   0.1496 Z
    Strength   :     0.0203919456
    D(  126) --> S(    1) amplitude = -0.1710 beta
    D(  129) --> S(    1) amplitude =  0.1601 beta
    D(  142) --> S(    2) amplitude = -0.4538 beta
    D(  143) --> S(    2) amplitude =  0.2737 beta
    D(  144) --> S(    1) amplitude =  0.6322 beta

 Excited state  44: excitation energy (eV) =    5.3321
 Total energy for state 44:                 -3127.72732856 au
    <S**2>     :  8.8139
    Trans. Mom.: -0.4703 X  -0.0475 Y   0.2183 Z
    Strength   :     0.0354116015
    D(  142) --> S(    2) amplitude =  0.6416 beta
    D(  143) --> S(    2) amplitude = -0.3751 beta
    D(  144) --> S(    1) amplitude =  0.4094 beta

 Excited state  45: excitation energy (eV) =    5.3644
 Total energy for state 45:                 -3127.72614110 au
    <S**2>     :  8.8067
    Trans. Mom.: -1.2467 X   0.4868 Y   0.5389 Z
    Strength   :     0.2735859659
    S(    5) --> V(    2) amplitude = -0.2618 alpha
    S(    5) --> V(    5) amplitude = -0.2658 alpha
    D(  133) --> S(    4) amplitude =  0.1569 beta
    D(  135) --> S(    5) amplitude = -0.2849 beta
    D(  138) --> S(    5) amplitude = -0.2054 beta
    D(  139) --> S(    5) amplitude = -0.1855 beta
    D(  144) --> S(    1) amplitude = -0.1922 beta
    D(  146) --> V(    2) amplitude =  0.1567 beta
    D(  146) --> V(    5) amplitude =  0.2157 beta
    D(  146) --> V(    8) amplitude =  0.2682 beta
    D(  147) --> V(    8) amplitude =  0.1894 beta

 Excited state  46: excitation energy (eV) =    5.4050
 Total energy for state 46:                 -3127.72464958 au
    <S**2>     :  8.8335
    Trans. Mom.: -0.0270 X  -0.1236 Y  -0.0506 Z
    Strength   :     0.0024587999
    D(  125) --> S(    1) amplitude =  0.1653 beta
    D(  126) --> S(    1) amplitude =  0.2759 beta
    D(  126) --> S(    2) amplitude = -0.2906 beta
    D(  128) --> S(    2) amplitude = -0.1586 beta
    D(  129) --> S(    1) amplitude = -0.2459 beta
    D(  129) --> S(    2) amplitude =  0.2995 beta
    D(  131) --> S(    1) amplitude =  0.2510 beta
    D(  144) --> S(    1) amplitude =  0.2038 beta
    D(  144) --> S(    2) amplitude =  0.4840 beta

 Excited state  47: excitation energy (eV) =    5.4395
 Total energy for state 47:                 -3127.72338184 au
    <S**2>     :  8.8108
    Trans. Mom.: -0.0284 X  -0.0343 Y   0.0491 Z
    Strength   :     0.0005864221
    D(  142) --> S(    3) amplitude =  0.8157 beta
    D(  143) --> S(    3) amplitude = -0.5020 beta

 Excited state  48: excitation energy (eV) =    5.4574
 Total energy for state 48:                 -3127.72272233 au
    <S**2>     :  9.1092
    Trans. Mom.: -0.2832 X   0.1688 Y   0.0731 Z
    Strength   :     0.0152499205
    D(  126) --> S(    1) amplitude = -0.2467 beta
    D(  129) --> S(    1) amplitude =  0.2197 beta
    D(  131) --> S(    1) amplitude = -0.2399 beta
    D(  144) --> S(    1) amplitude = -0.2791 beta
    D(  144) --> S(    2) amplitude =  0.4916 beta
    D(  147) --> V(    1) amplitude = -0.3333 beta
    D(  147) --> V(    2) amplitude =  0.1566 beta

 Excited state  49: excitation energy (eV) =    5.4634
 Total energy for state 49:                 -3127.72250278 au
    <S**2>     :  9.5956
    Trans. Mom.:  0.1496 X  -0.0762 Y  -0.2041 Z
    Strength   :     0.0093449819
    D(  144) --> S(    2) amplitude =  0.3415 beta
    D(  147) --> V(    1) amplitude =  0.5570 beta
    D(  147) --> V(    2) amplitude = -0.2182 beta
    D(  147) --> V(    4) amplitude = -0.1834 beta

 Excited state  50: excitation energy (eV) =    5.5172
 Total energy for state 50:                 -3127.72052571 au
    <S**2>     : 10.6719
    Trans. Mom.:  0.0545 X  -0.0883 Y  -0.0090 Z
    Strength   :     0.0014667393
    D(  140) --> V(   26) amplitude = -0.1639 alpha
    D(  140) --> V(   27) amplitude = -0.1624 alpha
    D(  137) --> V(   26) amplitude = -0.1664 beta
    D(  137) --> V(   27) amplitude = -0.1604 beta

 Excited state  51: excitation energy (eV) =    5.5311
 Total energy for state 51:                 -3127.72001284 au
    <S**2>     :  8.8378
    Trans. Mom.: -0.3011 X   0.2535 Y   0.0262 Z
    Strength   :     0.0210902511
    D(  125) --> S(    2) amplitude = -0.1656 beta
    D(  126) --> S(    2) amplitude = -0.2692 beta
    D(  126) --> S(    3) amplitude = -0.2525 beta
    D(  128) --> S(    3) amplitude = -0.1687 beta
    D(  129) --> S(    2) amplitude =  0.2480 beta
    D(  129) --> S(    3) amplitude =  0.2711 beta
    D(  131) --> S(    2) amplitude = -0.2470 beta
    D(  133) --> S(    4) amplitude =  0.1963 beta
    D(  144) --> S(    2) amplitude = -0.2325 beta
    D(  144) --> S(    3) amplitude =  0.3913 beta

 Excited state  52: excitation energy (eV) =    5.5485
 Total energy for state 52:                 -3127.71937426 au
    <S**2>     :  8.8244
    Trans. Mom.:  0.0424 X  -0.2379 Y   0.0650 Z
    Strength   :     0.0085123588
    D(  126) --> S(    2) amplitude =  0.2222 beta
    D(  126) --> S(    3) amplitude = -0.2487 beta
    D(  129) --> S(    2) amplitude = -0.1947 beta
    D(  129) --> S(    3) amplitude =  0.2470 beta
    D(  131) --> S(    2) amplitude =  0.2315 beta
    D(  144) --> S(    2) amplitude =  0.3235 beta
    D(  144) --> S(    3) amplitude =  0.5633 beta

 Excited state  53: excitation energy (eV) =    5.5573
 Total energy for state 53:                 -3127.71905016 au
    <S**2>     : 10.6225
    Trans. Mom.: -0.0293 X  -0.0066 Y   0.0073 Z
    Strength   :     0.0001299286
    S(    5) --> V(    1) amplitude =  0.4394 alpha
    S(    5) --> V(    4) amplitude =  0.3350 alpha
    S(    5) --> V(    6) amplitude = -0.1949 alpha
    D(  146) --> V(    1) amplitude =  0.3817 beta
    D(  146) --> V(    4) amplitude =  0.2264 beta
    D(  147) --> V(    2) amplitude =  0.1731 beta
    D(  147) --> V(    4) amplitude =  0.2218 beta

 Excited state  54: excitation energy (eV) =    5.6067
 Total energy for state 54:                 -3127.71723566 au
    <S**2>     :  9.1679
    Trans. Mom.:  0.4374 X   0.1395 Y   0.0054 Z
    Strength   :     0.0289614769
    S(    5) --> V(    1) amplitude =  0.1644 alpha
    S(    5) --> V(    4) amplitude =  0.1525 alpha
    D(  133) --> S(    4) amplitude =  0.1600 beta
    D(  135) --> V(    8) amplitude = -0.2416 beta
    D(  138) --> V(    5) amplitude = -0.1500 beta
    D(  138) --> V(    8) amplitude = -0.2482 beta
    D(  139) --> V(    8) amplitude = -0.1512 beta
    D(  146) --> V(    1) amplitude = -0.1507 beta
    D(  147) --> V(    8) amplitude =  0.2409 beta

 Excited state  55: excitation energy (eV) =    5.6169
 Total energy for state 55:                 -3127.71686274 au
    <S**2>     :  8.9489
    Trans. Mom.:  0.3972 X  -0.1820 Y   0.4090 Z
    Strength   :     0.0492910527
    S(    5) --> V(    1) amplitude =  0.2068 alpha
    S(    5) --> V(    4) amplitude =  0.2064 alpha
    D(  133) --> S(    4) amplitude =  0.2348 beta
    D(  134) --> S(    4) amplitude = -0.3902 beta
    D(  134) --> S(    5) amplitude =  0.2144 beta
    D(  140) --> S(    1) amplitude =  0.2486 beta
    D(  146) --> V(    1) amplitude = -0.1733 beta
    D(  146) --> V(    8) amplitude =  0.1580 beta

 Excited state  56: excitation energy (eV) =    5.6208
 Total energy for state 56:                 -3127.71671829 au
    <S**2>     :  8.9930
    Trans. Mom.: -0.3727 X  -0.0911 Y  -0.0583 Z
    Strength   :     0.0207360298
    S(    4) --> V(    1) amplitude =  0.1512 alpha
    D(  133) --> S(    4) amplitude = -0.1843 beta
    D(  134) --> S(    4) amplitude =  0.2533 beta
    D(  138) --> S(    1) amplitude = -0.1657 beta
    D(  139) --> S(    1) amplitude = -0.1621 beta
    D(  140) --> S(    1) amplitude =  0.7332 beta
    D(  144) --> S(    1) amplitude =  0.1975 beta

 Excited state  57: excitation energy (eV) =    5.6233
 Total energy for state 57:                 -3127.71662704 au
    <S**2>     :  9.0182
    Trans. Mom.:  0.6968 X  -0.0858 Y  -0.2595 Z
    Strength   :     0.0771762767
    S(    4) --> V(    1) amplitude = -0.1838 alpha
    S(    5) --> V(    1) amplitude = -0.2617 alpha
    S(    5) --> V(    4) amplitude = -0.1680 alpha
    D(  126) --> S(    3) amplitude =  0.2053 beta
    D(  129) --> S(    3) amplitude = -0.1983 beta
    D(  131) --> S(    3) amplitude =  0.1615 beta
    D(  134) --> S(    4) amplitude = -0.2382 beta
    D(  140) --> S(    1) amplitude =  0.3088 beta
    D(  144) --> S(    3) amplitude =  0.2835 beta
    D(  146) --> V(    1) amplitude =  0.2266 beta

 Excited state  58: excitation energy (eV) =    5.6352
 Total energy for state 58:                 -3127.71618793 au
    <S**2>     :  8.8442
    Trans. Mom.: -0.3947 X   0.1001 Y   0.1153 Z
    Strength   :     0.0247244562
    S(    5) --> V(    1) amplitude =  0.1668 alpha
    D(  125) --> S(    3) amplitude =  0.1780 beta
    D(  126) --> S(    3) amplitude =  0.2733 beta
    D(  129) --> S(    3) amplitude = -0.2584 beta
    D(  131) --> S(    3) amplitude =  0.2738 beta
    D(  139) --> S(    3) amplitude =  0.1768 beta
    D(  144) --> S(    3) amplitude =  0.4354 beta
    D(  146) --> V(    1) amplitude = -0.1702 beta

 Excited state  59: excitation energy (eV) =    5.6756
 Total energy for state 59:                 -3127.71470259 au
    <S**2>     :  9.1999
    Trans. Mom.: -0.4430 X  -0.4269 Y  -0.1968 Z
    Strength   :     0.0580166905
    S(    3) --> V(    1) amplitude =  0.4204 alpha
    S(    3) --> V(    2) amplitude = -0.1783 alpha
    S(    3) --> V(    3) amplitude = -0.1540 alpha
    S(    3) --> V(    4) amplitude = -0.1554 alpha
    S(    4) --> V(    1) amplitude = -0.2255 alpha
    D(  132) --> S(    4) amplitude = -0.1599 beta
    D(  133) --> S(    4) amplitude = -0.1976 beta
    D(  134) --> S(    4) amplitude =  0.1861 beta
    D(  141) --> S(    1) amplitude = -0.2847 beta
    D(  143) --> S(    1) amplitude =  0.1695 beta

 Excited state  60: excitation energy (eV) =    5.6814
 Total energy for state 60:                 -3127.71449285 au
    <S**2>     :  9.0108
    Trans. Mom.: -0.1401 X  -0.1592 Y  -0.0137 Z
    Strength   :     0.0062864871
    S(    3) --> V(    1) amplitude =  0.2112 alpha
    S(    4) --> V(    1) amplitude = -0.1513 alpha
    D(  141) --> S(    1) amplitude =  0.6665 beta
    D(  142) --> S(    1) amplitude = -0.2368 beta
    D(  143) --> S(    1) amplitude = -0.4099 beta

 Excited state  61: excitation energy (eV) =    5.7180
 Total energy for state 61:                 -3127.71314747 au
    <S**2>     : 10.7103
    Trans. Mom.:  0.0118 X   0.0237 Y  -0.0373 Z
    Strength   :     0.0002929288
    S(    2) --> V(   40) amplitude =  0.1957 alpha
    D(  144) --> V(   38) amplitude =  0.1619 beta
    D(  144) --> V(   40) amplitude = -0.2166 beta

 Excited state  62: excitation energy (eV) =    5.7216
 Total energy for state 62:                 -3127.71301412 au
    <S**2>     :  9.6394
    Trans. Mom.:  0.0525 X  -0.1339 Y   0.2110 Z
    Strength   :     0.0091416212
    S(    3) --> V(    1) amplitude =  0.3371 alpha
    S(    3) --> V(    2) amplitude = -0.1616 alpha
    S(    3) --> V(    4) amplitude = -0.1998 alpha
    S(    4) --> V(    1) amplitude =  0.3888 alpha
    S(    4) --> V(    2) amplitude = -0.1815 alpha
    S(    4) --> V(    3) amplitude =  0.1709 alpha
    S(    4) --> V(    4) amplitude = -0.2542 alpha
    D(  140) --> S(    2) amplitude = -0.3029 beta

 Excited state  63: excitation energy (eV) =    5.7270
 Total energy for state 63:                 -3127.71281459 au
    <S**2>     :  8.9079
    Trans. Mom.:  0.1865 X  -0.0919 Y   0.1381 Z
    Strength   :     0.0087421235
    S(    4) --> V(    1) amplitude =  0.1951 alpha
    D(  123) --> S(    2) amplitude =  0.1585 beta
    D(  138) --> S(    2) amplitude = -0.1766 beta
    D(  139) --> S(    2) amplitude = -0.1672 beta
    D(  140) --> S(    2) amplitude =  0.7761 beta
    D(  144) --> S(    2) amplitude =  0.1954 beta

 Excited state  64: excitation energy (eV) =    5.7514
 Total energy for state 64:                 -3127.71191678 au
    <S**2>     : 10.7421
    Trans. Mom.:  0.0094 X  -0.0203 Y  -0.0051 Z
    Strength   :     0.0000744006
    D(  144) --> V(   40) amplitude = -0.1675 alpha
    D(  140) --> V(   38) amplitude =  0.1821 beta
    D(  140) --> V(   40) amplitude = -0.2312 beta

 Excited state  65: excitation energy (eV) =    5.7552
 Total energy for state 65:                 -3127.71177907 au
    <S**2>     : 10.1912
    Trans. Mom.:  0.0907 X   0.1242 Y   0.0341 Z
    Strength   :     0.0034986658
    S(    1) --> V(   43) amplitude = -0.1538 alpha
    D(  133) --> S(    4) amplitude =  0.1523 beta
    D(  134) --> S(    4) amplitude =  0.2336 beta
    D(  143) --> S(    1) amplitude =  0.1962 beta
    D(  143) --> V(   39) amplitude = -0.1593 beta
    D(  143) --> V(   40) amplitude = -0.1729 beta
    D(  143) --> V(   43) amplitude = -0.1815 beta

 Excited state  66: excitation energy (eV) =    5.7618
 Total energy for state 66:                 -3127.71153786 au
    <S**2>     :  9.2523
    Trans. Mom.:  0.2873 X   0.2093 Y   0.0299 Z
    Strength   :     0.0179616958
    D(  132) --> S(    4) amplitude =  0.1903 beta
    D(  133) --> S(    4) amplitude =  0.3011 beta
    D(  134) --> S(    4) amplitude =  0.4651 beta
    D(  136) --> S(    4) amplitude = -0.2079 beta

 Excited state  67: excitation energy (eV) =    5.7759
 Total energy for state 67:                 -3127.71101716 au
    <S**2>     :  9.1097
    Trans. Mom.:  0.2134 X  -0.2190 Y  -0.0163 Z
    Strength   :     0.0132667131
    D(  121) --> S(    1) amplitude =  0.1629 beta
    D(  123) --> S(    1) amplitude = -0.2410 beta
    D(  128) --> S(    1) amplitude =  0.2788 beta
    D(  128) --> S(    2) amplitude = -0.1692 beta
    D(  137) --> S(    1) amplitude = -0.1570 beta
    D(  140) --> S(    1) amplitude =  0.1576 beta
    D(  141) --> S(    2) amplitude =  0.1934 beta
    D(  143) --> S(    1) amplitude = -0.1816 beta
    D(  147) --> V(    5) amplitude = -0.1611 beta

 Excited state  68: excitation energy (eV) =    5.7857
 Total energy for state 68:                 -3127.71065741 au
    <S**2>     : 10.5418
    Trans. Mom.:  0.0403 X  -0.1631 Y  -0.0007 Z
    Strength   :     0.0039992884
    D(  143) --> V(   39) amplitude = -0.1558 alpha
    D(  143) --> V(   40) amplitude =  0.1765 alpha
    D(  143) --> V(   43) amplitude = -0.1798 alpha
    D(  139) --> V(   39) amplitude =  0.1523 beta
    D(  139) --> V(   40) amplitude =  0.1629 beta
    D(  139) --> V(   43) amplitude =  0.1780 beta
    D(  141) --> S(    1) amplitude =  0.1732 beta

 Excited state  69: excitation energy (eV) =    5.7952
 Total energy for state 69:                 -3127.71030818 au
    <S**2>     :  9.1390
    Trans. Mom.: -0.0646 X   0.4720 Y   0.0831 Z
    Strength   :     0.0331987811
    D(  123) --> S(    1) amplitude = -0.4041 beta
    D(  128) --> S(    1) amplitude =  0.2661 beta
    D(  134) --> S(    5) amplitude =  0.1561 beta
    D(  141) --> S(    1) amplitude = -0.2010 beta
    D(  142) --> S(    1) amplitude = -0.2188 beta
    D(  143) --> S(    1) amplitude = -0.2402 beta
    D(  145) --> V(    1) amplitude = -0.2516 beta
    D(  147) --> V(    3) amplitude =  0.2274 beta

 Excited state  70: excitation energy (eV) =    5.8066
 Total energy for state 70:                 -3127.70989102 au
    <S**2>     :  9.0692
    Trans. Mom.: -0.0452 X   0.1777 Y   0.0219 Z
    Strength   :     0.0048484620
    D(  123) --> S(    1) amplitude = -0.2365 beta
    D(  137) --> S(    1) amplitude = -0.1840 beta
    D(  141) --> S(    1) amplitude =  0.4703 beta
    D(  142) --> S(    1) amplitude =  0.2865 beta
    D(  143) --> S(    1) amplitude =  0.5389 beta

 Excited state  71: excitation energy (eV) =    5.8164
 Total energy for state 71:                 -3127.70953025 au
    <S**2>     :  9.0293
    Trans. Mom.: -0.4555 X  -0.1829 Y   0.3129 Z
    Strength   :     0.0482803005
    S(    3) --> V(    2) amplitude = -0.1606 alpha
    S(    3) --> V(    5) amplitude = -0.1523 alpha
    D(  131) --> S(    4) amplitude =  0.2493 beta
    D(  132) --> S(    4) amplitude =  0.2308 beta
    D(  133) --> S(    5) amplitude =  0.4142 beta
    D(  136) --> S(    4) amplitude =  0.2462 beta
    D(  145) --> V(    1) amplitude =  0.2288 beta
    D(  147) --> V(    3) amplitude = -0.1715 beta

 Excited state  72: excitation energy (eV) =    5.8226
 Total energy for state 72:                 -3127.70930260 au
    <S**2>     :  8.8793
    Trans. Mom.: -0.0144 X  -0.0637 Y   0.0991 Z
    Strength   :     0.0020087586
    D(  141) --> S(    2) amplitude =  0.6145 beta
    D(  141) --> S(    3) amplitude =  0.1503 beta
    D(  142) --> S(    2) amplitude = -0.2837 beta
    D(  143) --> S(    2) amplitude = -0.4585 beta

 Excited state  73: excitation energy (eV) =    5.8391
 Total energy for state 73:                 -3127.70869654 au
    <S**2>     :  9.9047
    Trans. Mom.: -0.0164 X  -0.0879 Y  -0.0593 Z
    Strength   :     0.0016459433
    D(  147) --> V(   38) amplitude = -0.1653 alpha
    D(  147) --> V(   40) amplitude = -0.2123 alpha
    D(  140) --> S(    3) amplitude =  0.5515 beta
    D(  142) --> V(   40) amplitude =  0.1742 beta

 Excited state  74: excitation energy (eV) =    5.8423
 Total energy for state 74:                 -3127.70857893 au
    <S**2>     :  9.4451
    Trans. Mom.:  0.2814 X  -0.1265 Y  -0.1404 Z
    Strength   :     0.0164487232
    D(  140) --> S(    3) amplitude =  0.5213 beta

 Excited state  75: excitation energy (eV) =    5.8442
 Total energy for state 75:                 -3127.70851001 au
    <S**2>     :  9.2249
    Trans. Mom.: -0.0873 X   0.2911 Y  -0.1564 Z
    Strength   :     0.0167246202
    S(    3) --> V(    2) amplitude =  0.2424 alpha
    S(    3) --> V(    5) amplitude =  0.1811 alpha
    D(  123) --> S(    2) amplitude = -0.2076 beta
    D(  133) --> S(    4) amplitude = -0.2547 beta
    D(  133) --> S(    5) amplitude =  0.2826 beta
    D(  134) --> S(    5) amplitude = -0.2048 beta
    D(  136) --> S(    5) amplitude = -0.1938 beta
    D(  147) --> V(    2) amplitude = -0.1909 beta

 Excited state  76: excitation energy (eV) =    5.8460
 Total energy for state 76:                 -3127.70844205 au
    <S**2>     :  9.1156
    Trans. Mom.: -0.3891 X  -0.0711 Y   0.1517 Z
    Strength   :     0.0257016327
    S(    3) --> V(    2) amplitude = -0.2555 alpha
    S(    3) --> V(    5) amplitude = -0.2401 alpha
    D(  123) --> S(    1) amplitude =  0.2079 beta
    D(  140) --> S(    3) amplitude =  0.3699 beta

 Excited state  77: excitation energy (eV) =    5.8673
 Total energy for state 77:                 -3127.70765923 au
    <S**2>     :  8.9255
    Trans. Mom.:  0.1985 X   0.0502 Y   0.0284 Z
    Strength   :     0.0061412264
    D(  137) --> S(    1) amplitude = -0.1556 beta
    D(  145) --> V(    1) amplitude =  0.2082 beta
    D(  147) --> V(    2) amplitude =  0.1590 beta
    D(  147) --> V(    3) amplitude = -0.1951 beta

 Excited state  78: excitation energy (eV) =    5.8787
 Total energy for state 78:                 -3127.70724129 au
    <S**2>     :  8.8429
    Trans. Mom.:  0.0266 X  -0.0514 Y   0.0839 Z
    Strength   :     0.0014969942
    D(  123) --> S(    2) amplitude =  0.4958 beta
    D(  128) --> S(    2) amplitude = -0.3227 beta
    D(  137) --> S(    1) amplitude =  0.3309 beta
    D(  137) --> S(    2) amplitude =  0.2215 beta
    D(  140) --> S(    2) amplitude = -0.1812 beta

 Excited state  79: excitation energy (eV) =    5.8985
 Total energy for state 79:                 -3127.70651123 au
    <S**2>     :  9.0757
    Trans. Mom.:  0.2292 X   0.0116 Y  -0.2238 Z
    Strength   :     0.0148501398
    D(  123) --> S(    3) amplitude =  0.1561 beta
    D(  128) --> S(    3) amplitude = -0.1936 beta
    D(  137) --> S(    1) amplitude = -0.2001 beta
    D(  141) --> S(    3) amplitude =  0.3673 beta
    D(  143) --> S(    2) amplitude =  0.2017 beta
    D(  143) --> S(    3) amplitude = -0.2645 beta
    D(  145) --> V(    1) amplitude = -0.1556 beta
    D(  147) --> V(    2) amplitude =  0.1560 beta

 Excited state  80: excitation energy (eV) =    5.9003
 Total energy for state 80:                 -3127.70644671 au
    <S**2>     :  8.8684
    Trans. Mom.:  0.0886 X   0.0379 Y  -0.1176 Z
    Strength   :     0.0033400719
    D(  123) --> S(    1) amplitude = -0.1869 beta
    D(  123) --> S(    2) amplitude = -0.2457 beta
    D(  128) --> S(    3) amplitude = -0.1535 beta
    D(  137) --> S(    1) amplitude =  0.6798 beta
    D(  141) --> S(    3) amplitude =  0.1895 beta

 Excited state  81: excitation energy (eV) =    5.9112
 Total energy for state 81:                 -3127.70604466 au
    <S**2>     :  8.9444
    Trans. Mom.: -0.2524 X   0.0456 Y   0.1038 Z
    Strength   :     0.0110858271
    D(  121) --> S(    1) amplitude = -0.2106 beta
[...]
  1.3385   1.3424   1.3433   1.3466   1.3494   1.3529   1.3566   1.3608
  1.3657   1.3685   1.3693   1.3717   1.3740   1.3806   1.3874   1.3937
  1.4003   1.4074   1.4095   1.4129   1.4142   1.4191   1.4209   1.4264
  1.4343   1.4368   1.4398   1.4408   1.4453   1.4496   1.4507   1.4563
  1.4613   1.4638   1.4737   1.4795   1.4833   1.4882   1.5024   1.5039
  1.5078   1.5088   1.5101   1.5190   1.5199   1.5255   1.5272   1.5331
  1.5428   1.5448   1.5519   1.5568   1.5622   1.5670   1.5708   1.5718
  1.5768   1.5796   1.5863   1.5890   1.5937   1.5956   1.6058   1.6100
  1.6142   1.6165   1.6202   1.6239   1.6275   1.6295   1.6325   1.6425
  1.6444   1.6456   1.6523   1.6563   1.6584   1.6624   1.6662   1.6697
  1.6728   1.6785   1.6826   1.6863   1.6898   1.6965   1.6985   1.7011
  1.7059   1.7122   1.7188   1.7195   1.7214   1.7254   1.7315   1.7334
  1.7381   1.7415   1.7456   1.7495   1.7518   1.7573   1.7630   1.7666
  1.7676   1.7714   1.7736   1.7748   1.7797   1.7888   1.7944   1.7950
  1.7971   1.7981   1.8061   1.8082   1.8163   1.8197   1.8232   1.8258
  1.8302   1.8370   1.8389   1.8408   1.8457   1.8510   1.8594   1.8620
  1.8660   1.8675   1.8754   1.8780   1.8799   1.8847   1.8874   1.8922
  1.8947   1.9012   1.9036   1.9087   1.9165   1.9194   1.9265   1.9305
  1.9352   1.9443   1.9475   1.9528   1.9555   1.9588   1.9635   1.9653
  1.9678   1.9742   1.9768   1.9844   1.9858   1.9903   1.9911   1.9932
  1.9966   2.0017   2.0071   2.0128   2.0186   2.0218   2.0314   2.0351
  2.0369   2.0390   2.0419   2.0447   2.0505   2.0528   2.0560   2.0579
  2.0600   2.0632   2.0657   2.0694   2.0753   2.0785   2.0838   2.0902
  2.0921   2.0974   2.1002   2.1040   2.1084   2.1137   2.1158   2.1205
  2.1240   2.1259   2.1296   2.1337   2.1380   2.1445   2.1461   2.1500
  2.1544   2.1561   2.1614   2.1626   2.1665   2.1789   2.1824   2.1861
  2.1900   2.1928   2.2022   2.2096   2.2113   2.2183   2.2252   2.2281
  2.2320   2.2345   2.2377   2.2427   2.2454   2.2523   2.2609   2.2614
  2.2646   2.2706   2.2760   2.2795   2.2804   2.2892   2.2913   2.2977
  2.3022   2.3098   2.3140   2.3177   2.3222   2.3257   2.3313   2.3346
  2.3403   2.3440   2.3515   2.3542   2.3588   2.3612   2.3697   2.3759
  2.3857   2.3934   2.3957   2.4034   2.4121   2.4199   2.4227   2.4281
  2.4301   2.4346   2.4379   2.4473   2.4519   2.4653   2.4676   2.4691
  2.4801   2.4819   2.4923   2.4983   2.5047   2.5069   2.5116   2.5126
  2.5259   2.5280   2.5344   2.5359   2.5427   2.5448   2.5509   2.5603
  2.5642   2.5672   2.5753   2.5806   2.5845   2.5926   2.5997   2.6089
  2.6135   2.6154   2.6249   2.6280   2.6304   2.6473   2.6508   2.6536
  2.6618   2.6691   2.6764   2.6784   2.6849   2.6879   2.6941   2.7006
  2.7113   2.7179   2.7235   2.7266   2.7377   2.7391   2.7470   2.7541
  2.7628   2.7708   2.7778   2.7780   2.7857   2.7953   2.7980   2.8038
  2.8103   2.8263   2.8303   2.8406   2.8435   2.8511   2.8611   2.8721
  2.8827   2.8888   2.8983   2.9034   2.9083   2.9133   2.9213   2.9362
  2.9435   2.9538   2.9561   2.9603   2.9628   2.9761   2.9863   3.0059
  3.0121   3.0176   3.0270   3.0321   3.0416   3.0488   3.0741   3.0769
  3.0822   3.0889   3.0977   3.1114   3.1235   3.1468   3.1550   3.1763
  3.1843   3.2254   3.2351   3.2529   3.2647   3.3155   3.3323   3.3364
  3.3662   3.3736   3.3978   3.4319   3.4431   3.4646   3.4827   3.4909
  3.5051   3.5178   3.5381   3.5394   3.5571   3.5638   3.5700   3.5741
  3.5757   3.5826   3.5906   3.5967   3.5979   3.6027   3.6041   3.6133
  3.6196   3.6257   3.6265   3.6318   3.6429   3.6475   3.6583   3.6643
  3.6739   3.6794   3.6916   3.6963   3.7051   3.7085   3.7260   3.7428
  3.7488   3.7624   3.7663   3.7850   3.7915   3.8042   3.8075   3.8159
  3.8240   3.8305   3.8474   3.8553   3.8699   3.8806   3.8913   3.9029
  3.9201   3.9324   3.9481   3.9528   3.9676   3.9695   3.9989   4.0106
  4.0268   4.0531   4.0616   4.0766   4.1017   4.1209   4.1319   4.1451
  4.1637   4.1794   4.2246   4.2565   4.2808   4.3156   4.3813   4.3957
  4.4539   4.5518   4.6363   4.7277
 
 Beta MOs
 -- Occupied --
******** -30.1432 -26.0135 -26.0121 -26.0114 -19.2134 -19.2124 -19.2106
-19.2088 -19.2008 -19.1977 -19.1870 -19.1689 -19.1645 -19.1643 -19.1625
-14.4915 -14.4906 -14.4189 -14.4137 -10.3689 -10.3677 -10.3669 -10.3634
-10.3490 -10.3453 -10.3323 -10.2944 -10.2926 -10.2874 -10.2837 -10.2652
-10.2646 -10.2557 -10.2545 -10.2479 -10.2457 -10.2442 -10.2397 -10.2392
-10.2376  -3.5102  -2.2710  -2.2692  -2.2683  -1.1694  -1.1672  -1.1242
 -1.1187  -1.1125  -1.1089  -1.0935  -1.0918  -1.0899  -1.0263  -1.0222
 -0.9980  -0.9960  -0.9382  -0.9353  -0.8797  -0.8762  -0.8594  -0.8422
 -0.8307  -0.8148  -0.8056  -0.7973  -0.7758  -0.7654  -0.7254  -0.7160
 -0.6773  -0.6701  -0.6524  -0.6387  -0.6308  -0.6111  -0.6037  -0.6024
 -0.5989  -0.5850  -0.5773  -0.5726  -0.5689  -0.5642  -0.5579  -0.5518
 -0.5493  -0.5461  -0.5397  -0.5339  -0.5264  -0.5258  -0.5151  -0.5101
 -0.5064  -0.5026  -0.5001  -0.4966  -0.4915  -0.4862  -0.4817  -0.4802
 -0.4750  -0.4744  -0.4710  -0.4690  -0.4648  -0.4606  -0.4594  -0.4590
 -0.4533  -0.4468  -0.4432  -0.4395  -0.4380  -0.4309  -0.4299  -0.4268
 -0.4110  -0.4064  -0.4000  -0.3941  -0.3915  -0.3856  -0.3830  -0.3816
 -0.3788  -0.3749  -0.3705  -0.3678  -0.3606  -0.3583  -0.3357  -0.3335
 -0.3255  -0.3213  -0.3181  -0.3111  -0.3110  -0.3057  -0.3055  -0.2989
 -0.2837  -0.2729  -0.2640
 -- Virtual --
 -0.0415  -0.0379  -0.0346  -0.0020   0.0068   0.0132   0.0190   0.0194
  0.0203   0.0280   0.0314   0.0322   0.0338   0.0360   0.0391   0.0437
  0.0441   0.0462   0.0506   0.0508   0.0535   0.0589   0.0614   0.0628
  0.0647   0.0660   0.0676   0.0689   0.0700   0.0716   0.0735   0.0757
  0.0790   0.0821   0.0846   0.0851   0.0867   0.0878   0.0893   0.0916
  0.0937   0.0959   0.0979   0.0990   0.1023   0.1032   0.1044   0.1066
  0.1085   0.1105   0.1162   0.1173   0.1191   0.1214   0.1224   0.1236
  0.1253   0.1270   0.1287   0.1297   0.1305   0.1326   0.1353   0.1384
  0.1389   0.1395   0.1404   0.1432   0.1440   0.1463   0.1487   0.1501
  0.1531   0.1540   0.1553   0.1575   0.1583   0.1594   0.1616   0.1662
  0.1678   0.1695   0.1706   0.1732   0.1756   0.1771   0.1776   0.1788
  0.1797   0.1824   0.1843   0.1851   0.1876   0.1888   0.1904   0.1912
  0.1929   0.1978   0.1989   0.2004   0.2023   0.2046   0.2066   0.2087
  0.2098   0.2116   0.2128   0.2135   0.2149   0.2178   0.2217   0.2231
  0.2248   0.2284   0.2300   0.2321   0.2336   0.2355   0.2358   0.2371
  0.2386   0.2406   0.2425   0.2440   0.2461   0.2467   0.2488   0.2529
  0.2543   0.2552   0.2579   0.2589   0.2610   0.2626   0.2641   0.2666
  0.2671   0.2680   0.2700   0.2710   0.2728   0.2756   0.2790   0.2807
  0.2815   0.2828   0.2845   0.2867   0.2898   0.2908   0.2944   0.2951
  0.2961   0.2976   0.3001   0.3021   0.3028   0.3043   0.3059   0.3081
  0.3090   0.3109   0.3134   0.3135   0.3153   0.3178   0.3199   0.3207
  0.3228   0.3251   0.3265   0.3296   0.3313   0.3329   0.3349   0.3359
  0.3382   0.3399   0.3432   0.3438   0.3450   0.3478   0.3495   0.3505
  0.3542   0.3553   0.3577   0.3593   0.3601   0.3612   0.3626   0.3639
  0.3646   0.3674   0.3708   0.3710   0.3733   0.3745   0.3765   0.3781
  0.3796   0.3831   0.3842   0.3851   0.3878   0.3907   0.3936   0.3947
  0.3963   0.3990   0.4021   0.4029   0.4057   0.4062   0.4097   0.4107
  0.4119   0.4159   0.4177   0.4189   0.4226   0.4238   0.4255   0.4288
  0.4304   0.4329   0.4347   0.4370   0.4381   0.4402   0.4406   0.4410
  0.4453   0.4468   0.4498   0.4520   0.4536   0.4556   0.4564   0.4610
  0.4633   0.4653   0.4705   0.4713   0.4728   0.4746   0.4797   0.4806
  0.4823   0.4851   0.4874   0.4922   0.4940   0.4953   0.4991   0.5007
  0.5019   0.5062   0.5070   0.5075   0.5098   0.5118   0.5152   0.5164
  0.5191   0.5212   0.5235   0.5252   0.5260   0.5275   0.5336   0.5343
  0.5350   0.5417   0.5436   0.5440   0.5474   0.5496   0.5503   0.5537
  0.5551   0.5583   0.5611   0.5658   0.5674   0.5690   0.5707   0.5744
  0.5748   0.5767   0.5776   0.5788   0.5827   0.5849   0.5891   0.5907
  0.5923   0.5959   0.5973   0.5985   0.6018   0.6046   0.6059   0.6074
  0.6089   0.6111   0.6150   0.6178   0.6193   0.6227   0.6233   0.6239
  0.6286   0.6290   0.6300   0.6334   0.6350   0.6374   0.6403   0.6426
  0.6444   0.6472   0.6497   0.6528   0.6555   0.6578   0.6589   0.6603
  0.6620   0.6677   0.6682   0.6688   0.6720   0.6733   0.6745   0.6779
  0.6803   0.6817   0.6833   0.6867   0.6888   0.6908   0.6925   0.6933
  0.6965   0.7018   0.7026   0.7037   0.7081   0.7093   0.7118   0.7146
  0.7167   0.7185   0.7217   0.7243   0.7267   0.7287   0.7306   0.7331
  0.7363   0.7379   0.7403   0.7443   0.7455   0.7502   0.7529   0.7546
  0.7588   0.7600   0.7611   0.7643   0.7678   0.7703   0.7725   0.7734
  0.7773   0.7782   0.7794   0.7840   0.7858   0.7874   0.7899   0.7907
  0.7945   0.7962   0.7981   0.8014   0.8019   0.8071   0.8074   0.8115
  0.8132   0.8151   0.8177   0.8230   0.8243   0.8249   0.8284   0.8293
  0.8314   0.8341   0.8375   0.8389   0.8399   0.8448   0.8472   0.8485
  0.8494   0.8508   0.8558   0.8573   0.8617   0.8638   0.8655   0.8702
  0.8706   0.8723   0.8751   0.8800   0.8829   0.8837   0.8880   0.8902
  0.8939   0.8957   0.8977   0.8986   0.9057   0.9097   0.9116   0.9143
  0.9168   0.9213   0.9248   0.9287   0.9306   0.9316   0.9353   0.9387
  0.9406   0.9440   0.9464   0.9502   0.9516   0.9541   0.9615   0.9621
  0.9686   0.9709   0.9772   0.9799   0.9834   0.9858   0.9923   0.9949
  0.9975   0.9998   1.0038   1.0065   1.0106   1.0136   1.0183   1.0202
  1.0227   1.0234   1.0274   1.0322   1.0363   1.0382   1.0411   1.0443
  1.0523   1.0547   1.0579   1.0608   1.0665   1.0689   1.0702   1.0723
  1.0748   1.0803   1.0819   1.0850   1.0860   1.0934   1.1008   1.1019
  1.1023   1.1066   1.1091   1.1142   1.1172   1.1189   1.1240   1.1303
  1.1315   1.1345   1.1397   1.1499   1.1515   1.1541   1.1609   1.1663
  1.1698   1.1719   1.1774   1.1791   1.1838   1.1878   1.1895   1.1982
  1.1984   1.2004   1.2049   1.2081   1.2124   1.2144   1.2164   1.2208
  1.2287   1.2336   1.2374   1.2415   1.2458   1.2528   1.2534   1.2564
  1.2635   1.2644   1.2653   1.2726   1.2762   1.2771   1.2834   1.2866
  1.2897   1.2952   1.2994   1.3013   1.3042   1.3071   1.3134   1.3153
  1.3205   1.3258   1.3321   1.3368   1.3385   1.3418   1.3447   1.3472
  1.3492   1.3511   1.3572   1.3600   1.3629   1.3692   1.3704   1.3720
  1.3737   1.3759   1.3826   1.3896   1.3960   1.4017   1.4093   1.4114
  1.4140   1.4176   1.4212   1.4226   1.4281   1.4356   1.4376   1.4424
  1.4429   1.4475   1.4522   1.4528   1.4586   1.4639   1.4661   1.4760
  1.4835   1.4855   1.4907   1.5049   1.5060   1.5102   1.5112   1.5122
  1.5207   1.5233   1.5279   1.5288   1.5352   1.5444   1.5480   1.5537
  1.5579   1.5637   1.5688   1.5736   1.5757   1.5786   1.5822   1.5885
  1.5915   1.5951   1.5978   1.6077   1.6116   1.6157   1.6205   1.6228
  1.6267   1.6301   1.6350   1.6352   1.6448   1.6470   1.6477   1.6541
  1.6589   1.6600   1.6634   1.6683   1.6725   1.6766   1.6813   1.6865
  1.6887   1.6925   1.6981   1.7002   1.7046   1.7078   1.7143   1.7219
  1.7223   1.7248   1.7288   1.7348   1.7361   1.7408   1.7432   1.7475
  1.7525   1.7536   1.7618   1.7655   1.7680   1.7700   1.7736   1.7764
  1.7805   1.7847   1.7911   1.7964   1.7985   1.8000   1.8033   1.8097
  1.8098   1.8185   1.8227   1.8275   1.8283   1.8314   1.8408   1.8415
  1.8425   1.8487   1.8529   1.8609   1.8653   1.8675   1.8710   1.8779
  1.8808   1.8831   1.8867   1.8902   1.8941   1.8969   1.9029   1.9063
  1.9114   1.9182   1.9257   1.9290   1.9329   1.9383   1.9496   1.9508
  1.9549   1.9579   1.9609   1.9676   1.9691   1.9706   1.9769   1.9828
  1.9883   1.9912   1.9920   1.9928   1.9949   1.9999   2.0046   2.0087
  2.0153   2.0216   2.0235   2.0327   2.0368   2.0390   2.0421   2.0439
  2.0472   2.0535   2.0560   2.0574   2.0592   2.0613   2.0661   2.0666
  2.0716   2.0774   2.0815   2.0868   2.0926   2.0940   2.0986   2.1018
  2.1062   2.1101   2.1161   2.1190   2.1230   2.1269   2.1291   2.1318
  2.1356   2.1426   2.1478   2.1502   2.1542   2.1563   2.1600   2.1638
  2.1642   2.1708   2.1824   2.1851   2.1889   2.1929   2.1957   2.2044
  2.2130   2.2164   2.2195   2.2266   2.2311   2.2360   2.2384   2.2402
  2.2447   2.2471   2.2536   2.2626   2.2638   2.2669   2.2722   2.2788
  2.2821   2.2880   2.2903   2.2932   2.3009   2.3040   2.3153   2.3183
  2.3234   2.3266   2.3299   2.3346   2.3365   2.3418   2.3495   2.3538
  2.3579   2.3621   2.3649   2.3723   2.3795   2.3889   2.3949   2.3986
  2.4053   2.4144   2.4217   2.4249   2.4294   2.4327   2.4361   2.4446
  2.4493   2.4556   2.4660   2.4705   2.4712   2.4827   2.4839   2.4940
  2.5013   2.5064   2.5116   2.5127   2.5148   2.5276   2.5293   2.5361
  2.5390   2.5439   2.5467   2.5541   2.5612   2.5654   2.5693   2.5768
  2.5817   2.5875   2.5939   2.6023   2.6107   2.6159   2.6165   2.6256
  2.6287   2.6382   2.6501   2.6538   2.6559   2.6631   2.6732   2.6772
  2.6794   2.6880   2.6894   2.6966   2.7039   2.7159   2.7192   2.7261
  2.7294   2.7391   2.7415   2.7484   2.7582   2.7676   2.7716   2.7803
  2.7809   2.7892   2.7970   2.7992   2.8050   2.8155   2.8284   2.8352
  2.8446   2.8450   2.8530   2.8624   2.8756   2.8872   2.8905   2.9026
  2.9072   2.9124   2.9212   2.9257   2.9431   2.9456   2.9567   2.9589
  2.9621   2.9662   2.9813   2.9884   3.0103   3.0142   3.0204   3.0310
  3.0333   3.0434   3.0559   3.0810   3.0837   3.0889   3.1046   3.1085
  3.1203   3.1287   3.1532   3.1691   3.1850   3.1874   3.2280   3.2381
  3.2551   3.2696   3.3189   3.3353   3.3379   3.3697   3.3770   3.4020
  3.4344   3.4453   3.4678   3.4878   3.4918   3.5062   3.5185   3.5387
  3.5400   3.5631   3.5693   3.5716   3.5766   3.5777   3.5864   3.5949
  3.5997   3.6012   3.6055   3.6091   3.6177   3.6213   3.6311   3.6331
  3.6412   3.6501   3.6517   3.6641   3.6671   3.6793   3.6896   3.6986
  3.7018   3.7114   3.7144   3.7361   3.7512   3.7617   3.7667   3.7685
  3.7918   3.8021   3.8150   3.8170   3.8257   3.8352   3.8416   3.8596
  3.8638   3.8773   3.8898   3.8996   3.9129   3.9302   3.9402   3.9612
  3.9697   3.9760   4.0017   4.0135   4.0235   4.0465   4.0654   4.0935
  4.0967   4.1155   4.1330   4.1536   4.1719   4.1906   4.2305   4.2637
  4.2881   4.3543   4.4067   4.4087   4.4591   4.5521   4.5987   4.7280
  4.8005
 --------------------------------------------------------------
 
          Ground-State Mulliken Net Atomic Charges

     Atom                 Charge (a.u.)    Spin (a.u.)
  --------------------------------------------------------
      1 C                    -0.786200      -0.017140
      2 C                     1.155418      -0.002605
      3 H                    -0.605912       0.000144
      4 N                    -0.056670       0.004836
      5 H                    -0.103014       0.000633
      6 C                     0.875510      -0.000250
      7 O                    -0.883307       0.000064
      8 C                    -1.125330      -0.006918
      9 O                    -0.536230       0.093334
     10 N                     1.231661       0.026376
     11 C                     1.067633      -0.000402
     12 H                    -0.628359       0.000593
     13 H                    -0.707097       0.000254
     14 C                     3.227174       0.044043
     15 H                    -1.468470      -0.001029
     16 C                    -0.572793      -0.037832
     17 C                     0.976291       0.009948
     18 H                    -0.260453      -0.000261
     19 H                    -0.506490       0.000545
     20 C                     0.511574       0.002324
     21 O                    -0.955378      -0.000314
     22 N                     0.450526       0.000935
     23 H                    -0.043550      -0.000274
     24 C                     0.907625      -0.000560
     25 O                    -0.990708      -0.000018
     26 N                     1.193786       0.026152
     27 C                    -0.948263      -0.030233
     28 C                     1.905099       0.006405
     29 H                    -0.483814      -0.000076
     30 H                    -0.187730       0.000629
     31 H                    -0.388620       0.000387
     32 C                     1.148797      -0.001623
     33 H                    -0.723460       0.000149
     34 H                    -0.577265       0.001092
     35 C                     1.339683       0.001530
     36 H                    -0.563351       0.000134
     37 H                    -0.716478      -0.000143
     38 C                     1.299739      -0.001502
     39 H                    -1.070534       0.002144
     40 H                    -0.627698      -0.000158
     41 C                     1.443366       0.000856
     42 H                    -0.470983       0.000113
     43 H                    -0.595130      -0.000005
     44 C                     0.712803       0.000062
     45 H                    -0.771788       0.000063
     46 C                     1.155925       0.000813
     47 H                    -0.475223       0.000062
     48 H                    -0.413839      -0.000048
     49 C                     1.657742       0.002270
     50 H                    -0.304417       0.000264
     51 H                    -0.506053      -0.000339
     52 C                     1.486937      -0.000373
     53 H                    -0.597486       0.000799
     54 H                    -0.701403       0.000013
     55 C                     0.973791       0.004220
     56 H                    -0.729583      -0.000687
     57 H                    -0.646259       0.000113
     58 O                    -0.894014       0.000225
     59 O                    -0.850141      -0.000310
     60 O                    -0.644654       0.123210
     61 Fe                    2.436700       4.241664
     62 O                    -0.801881       0.092716
     63 O                    -1.206228       0.149804
     64 O                    -1.157675       0.159218
     65 O                    -0.782704       0.104102
     66 H                    -0.091140      -0.000136
  --------------------------------------------------------
  Sum of atomic charges =    -2.000000
  Sum of spin   charges =     5.000000

 -----------------------------------------------------------------
                    Cartesian Multipole Moments
 -----------------------------------------------------------------
    Charge (ESU x 10^10)
                -9.6064
    Dipole Moment (Debye)
         X      -1.7628      Y      15.9959      Z     -15.0773
       Tot      22.0523
    Quadrupole Moments (Debye-Ang)
        XX    -434.2420     XY      -6.8826     YY    -271.2135
        XZ      52.5940     YZ       7.8315     ZZ    -280.7322
    Octopole Moments (Debye-Ang^2)
       XXX     159.4028    XXY     537.3200    XYY      12.0069
       YYY     225.0546    XXZ    -516.4733    XYZ    -105.9038
       YYZ      50.1345    XZZ      21.6439    YZZ     124.7171
       ZZZ      14.4971
    Hexadecapole Moments (Debye-Ang^3)
      XXXX  -23876.0614   XXXY    -476.4207   XXYY   -4380.1077
      XYYY     468.4161   YYYY   -5681.1880   XXXZ    2111.4245
      XXYZ     550.6378   XYYZ     736.7993   YYYZ     144.6813
      XXZZ   -4653.5407   XYZZ      10.5981   YYZZ   -1672.6723
      XZZZ    1142.1834   YZZZ     281.1152   ZZZZ   -3741.3279
 -----------------------------------------------------------------
 Total job time:  308884.39s(wall), 5506612.44s(cpu) 
 Sat Feb 24 05:44:37 2024

        *************************************************************
        *                                                           *
        *  Thank you very much for using Q-Chem.  Have a nice day.  *
        *                                                           *
        *************************************************************


