
Running Job 1 of 1 C_FeABstar_enol_ccL_2sextet_SkS_b3lypD3bj_ccpVDZ_pcmH2O_opt.in
qchem C_FeABstar_enol_ccL_2sextet_SkS_b3lypD3bj_ccpVDZ_pcmH2O_opt.in_1422912.0 /data/scratch/C_FeABstar_enol_ccL_2sextet_SkS_b3lypD3bj_ccpVDZ_pcmH2O_opt20230613142922/ 0
/opt/qchem/6.0.1/exe/qcprog.exe_s C_FeABstar_enol_ccL_2sextet_SkS_b3lypD3bj_ccpVDZ_pcmH2O_opt.in_1422912.0 /data/scratch/C_FeABstar_enol_ccL_2sextet_SkS_b3lypD3bj_ccpVDZ_pcmH2O_opt20230613142922/
                  Welcome to Q-Chem
     A Quantum Leap Into The Future Of Chemistry


 Q-Chem 6.0, Q-Chem, Inc., Pleasanton, CA (2022)

 E. Epifanovsky,  A. T. B. Gilbert,  Xintian Feng,  Joonho Lee,  Yuezhi Mao,  
 N. Mardirossian,  P. Pokhilko,  A. White,  M. Wormit,  M. P. Coons,  
 A. L. Dempwolff,  Zhengting Gan,  D. Hait,  P. R. Horn,  L. D. Jacobson,  
 I. Kaliman,  J. Kussmann,  A. W. Lange,  Ka Un Lao,  D. S. Levine,  Jie Liu,  
 S. C. McKenzie,  A. F. Morrison,  K. Nanda,  F. Plasser,  D. R. Rehn,  
 M. L. Vidal,  Zhi-Qiang You,  Ying Zhu,  B. Alam,  B. Albrecht,  
 A. Aldossary,  E. Alguire,  J. H. Andersen,  V. Athavale,  D. Barton,  
 K. Begam,  A. Behn,  N. Bellonzi,  Y. A. Bernard,  E. J. Berquist,  
 H. Burton,  A. Carreras,  K. Carter-Fenk,  Romit Chakraborty,  
 Chandrima Chakravarty,  Junhan Chen,  A. D. Chien,  K. D. Closser,  
 V. Cofer-Shabica,  L. Cunha,  S. Dasgupta,  Jia Deng,  M. de Wergifosse,  
 M. Diedenhofen,  Hainam Do,  S. Ehlert,  Po-Tung Fang,  S. Fatehi,  
 Qingguo Feng,  T. Friedhoff,  B. Ganoe,  J. Gayvert,  Qinghui Ge,  
 G. Gidofalvi,  M. Goldey,  J. Gomes,  C. Gonzalez-Espinoza,  S. Gulania,  
 A. Gunina,  J. A. Gyamfi,  M. W. D. Hanson-Heine,  P. H. P. Harbach,  
 A. W. Hauser,  M. F. Herbst,  M. Hernandez Vera,  M. Hodecker,  
 Z. C. Holden,  S. Houck,  Xunkun Huang,  Kerwin Hui,  B. C. Huynh,  
 K. Ikeda,  M. Ivanov,  Hyunjun Ji,  Zuxin Jin,  Hanjie Jiang,  B. Kaduk,  
 S. Kaehler,  R. Kang,  K. Khistyaev,  Jaehoon Kim,  Yongbin Kim,  
 P. Klunzinger,  Z. Koczor-Benda,  Joong Hoon Koh,  D. Kosenkov,  
 Saikiran Kotaru,  L. Koulias,  T. Kowalczyk,  C. M. Krauter,  K. Kue,  
 A. Kunitsa,  T. Kus,  A. Landau,  K. V. Lawler,  D. Lefrancois,  S. Lehtola,  
 Rain Li,  Shaozhi Li,  Yi-Pei Li,  Jiashu Liang,  M. Liebenthal,  
 Hung-Hsuan Lin,  You-Sheng Lin,  Fenglai Liu,  Kuan-Yu Liu,  
 M. Loipersberger,  A. Luenser,  C. Malbon,  A. Manjanath,  P. Manohar,  
 E. Mansoor,  S. F. Manzer,  Shan-Ping Mao,  A. V. Marenich,  T. Markovich,  
 S. Mason,  F. Matz,  S. A. Maurer,  P. F. McLaughlin,  M. F. S. J. Menger,  
 J.-M. Mewes,  S. A. Mewes,  P. Morgante,  Mohammad Mostafanejad,  
 J. W. Mullinax,  K. J. Oosterbaan,  G. Paran,  V. Parravicini,  
 Alexander C. Paul,  Suranjan K. Paul,  F. Pavosevic,  Zheng Pei,  S. Prager,  
 E. I. Proynov,  E. Ramos,  B. Rana,  A. E. Rask,  A. Rettig,  R. M. Richard,  
 F. Rob,  E. Rossomme,  T. Scheele,  M. Scheurer,  M. Schneider,  
 P. E. Schneider,  N. Sergueev,  S. M. Sharada,  Hengyuan Shen,  
 W. Skomorowski,  D. W. Small,  C. J. Stein,  Yingli Su,  Yu-Chuan Su,  
 E. J. Sundstrom,  Zhen Tao,  J. Thirman,  Hung-Yi Tsai,  T. Tsuchimochi,  
 N. M. Tubman,  C. Utku,  S. P. Veccham,  O. Vydrov,  J. Wenzel,  
 Jonathan Wong,  J. Witte,  A. Yamada,  Chou-Hsun Yang,  Kun Yao,  
 S. Yeganeh,  S. R. Yost,  A. Zech,  F. Zeller,  Igor Ying Zhang,  
 Xing Zhang,  Yu Zhang,  D. Zuev,  A. Aspuru-Guzik,  A. T. Bell,  
 N. A. Besley,  K. B. Bravaya,  B. R. Brooks,  D. Casanova,  Jeng-Da Chai,  
 Hsing-Ta Chen,  S. Coriani,  C. J. Cramer,  A. E. DePrince, III,  
 R. A. DiStasio Jr.,  A. Dreuw,  B. D. Dunietz,  T. R. Furlani,  
 W. A. Goddard III,  S. Grimme,  S. Hammes-Schiffer,  T. Head-Gordon,  
 W. J. Hehre,  Chao-Ping Hsu,  T.-C. Jagau,  Yousung Jung,  A. Klamt,  
 Jing Kong,  D. S. Lambrecht,  Xiangyuan Li,  WanZhen Liang,  N. J. Mayhall,  
 C. W. McCurdy,  J. B. Neaton,  T. Neudecker,  C. Ochsenfeld,  
 J. A. Parkhill,  R. Peverati,  V. A. Rassolov,  Haisheng Ren,  Yihan Shao,  
 L. V. Slipchenko,  R. P. Steele,  J. E. Subotnik,  A. J. W. Thom,  
 A. Tkatchenko,  D. G. Truhlar,  T. Van Voorhis,  Fan Wang,  
 T. A. Wesolowski,  K. B. Whaley,  H. L. Woodcock III,  P. M. Zimmerman,  
 S. Faraji,  P. M. W. Gill,  M. Head-Gordon,  J. M. Herbert,  A. I. Krylov

 Contributors to earlier versions of Q-Chem not listed above: 
 R. D. Adamson,  B. Austin,  R. Baer,  J. Baker,  G. J. O. Beran,  
 K. Brandhorst,  S. T. Brown,  E. F. C. Byrd,  Arup K. Chakraborty,  
 G. K. L. Chan,  Chun-Min Chang,  Yunqing Chen,  C.-L. Cheng,  
 Siu Hung Chien,  D. M. Chipman,  D. L. Crittenden,  H. Dachsel,  
 R. J. Doerksen,  A. D. Dutoi,  R. G. Edgar,  J. Fosso-Tande,  
 L. Fusti-Molnar,  D. Ghosh,  A. Ghysels,  A. Golubeva-Zadorozhnaya,  
 J. Gonthier,  M. S. Gordon,  S. R. Gwaltney,  G. Hawkins,  J. E. Herr,  
 A. Heyden,  S. Hirata,  E. G. Hohenstein,  G. Kedziora,  F. J. Keil,  
 C. Kelley,  Jihan Kim,  R. A. King,  R. Z. Khaliullin,  P. P. Korambath,  
 W. Kurlancheek,  A. Laurent,  A. M. Lee,  M. S. Lee,  S. V. Levchenko,  
 Ching Yeh Lin,  D. Liotard,  E. Livshits,  R. C. Lochan,  I. Lotan,  
 L. A. Martinez-Martinez,  P. E. Maslen,  N. Nair,  D. P. O'Neill,  
 D. Neuhauser,  E. Neuscamman,  C. M. Oana,  R. Olivares-Amaya,  R. Olson,  
 T. M. Perrine,  B. Peters,  P. A. Pieniazek,  A. Prociuk,  Y. M. Rhee,  
 J. Ritchie,  M. A. Rohrdanz,  E. Rosta,  N. J. Russ,  H. F. Schaefer III,  
 M. W. Schmidt,  N. E. Schultz,  S. Sharma,  N. Shenvi,  C. D. Sherrill,  
 A. C. Simmonett,  A. Sodt,  T. Stein,  D. Stuck,  K. S. Thanthiriwatte,  
 V. Vanovschi,  L. Vogt,  Tao Wang,  A. Warshel,  M. A. Watson,  
 C. F. Williams,  Q. Wu,  X. Xu,  Jun Yang,  W. Zhang,  Yan Zhao

   Please cite Q-Chem as follows:
  "Software for the frontiers of quantum chemistry:
   An overview of developments in the Q-Chem 5 package"
   J. Chem. Phys. 155, 084801 (2021)
   https://doi.org/10.1063/5.0055522 (open access)

 Q-Chem 6.0.2 for Intel X86 EM64T Linux

 Parts of Q-Chem use Armadillo 9.900.5 (Nocturnal Misbehaviour).
 http://arma.sourceforge.net/

 Q-Chem begins on Tue Jun 13 14:29:22 2023  

 Host: 
0

     Scratch files written to /data/scratch/C_FeABstar_enol_ccL_2sextet_SkS_b3lypD3bj_ccpVDZ_pcmH2O_opt20230613142922//
 Dec722 |scratch|qcdevops|jenkins|workspace|build_RNUM 8907   
 Processing $rem in /opt/qchem/6.0.1/config/preferences:
 Processing $rem in /home/sgardner/.qchemrc:
 Symmetry turned off for PCM/SM12/SMD calculation

 Checking the input file for inconsistencies... 	...done.

--------------------------------------------------------------
User input:
--------------------------------------------------------------
$molecule
-2 6
N   -1.5516640   -1.9590185    1.6933385
C   -4.4772349    2.2919230   -0.5359775
H   -5.2104977    2.5595949   -1.3278922
N   -3.1290545    2.4332358   -1.0786952
H   -2.4590576    3.0633377   -0.6141248
C   -4.7236171    3.2433796    0.6243315
O   -5.8284097    3.2820970    1.1428998
C   -2.6858120    1.7848543   -2.1909104
O   -3.4259495    1.0577861   -2.8410641
C   -1.5746854   -2.8549301    0.5563908
C   -2.2862071   -4.1844489    0.6044844
H   -1.9051541   -4.8036467    1.4426668
H   -3.3817639   -4.0460522    0.7268172
H   -2.1273323   -4.7349378   -0.3479300
C   -1.2568298    1.9790893   -2.6146333
H   -1.1042621    3.0789198   -2.6786828
H   -1.0747553    1.6109915   -3.6578639
C   -0.3363038    1.2879354   -1.5933036
C    0.7134522    1.9461876   -1.0652501
H    0.8822439    2.9814210   -1.3743005
C    1.6598598    1.3969376   -0.0487121
O    1.5306557    0.2701534    0.4149468
N    2.7097650    2.1970888    0.3352014
H    2.8539102    3.0613328   -0.2107352
C    5.0863825    1.7966207    1.0248196
O    6.0847818    1.9488475    1.9211260
N    2.4301057   -2.7445617    0.5603547
C    2.5606443   -2.2284524   -0.7928852
C    3.7786945   -2.4954005   -1.6198787
H    3.4947053   -3.0696746   -2.5254932
H    4.2218853   -1.5245760   -1.9250900
H    4.5411307   -3.0792387   -1.0750148
C    3.5723806   -2.4975164    1.4852226
H    3.3916815   -2.9922698    2.4641877
H    4.4717571   -2.9946180    1.0721534
C    3.9338116   -1.0195331    1.7142165
H    4.9405542   -0.9468527    2.1810301
H    3.9833236   -0.5504661    0.7145416
C    2.9649305   -0.2819999    2.6518160
H    1.9163462   -0.4782037    2.4100697
H    3.0262552   -0.6934673    3.6830691
C    3.1995640    1.2441682    2.7090884
H    2.2686571    1.7052706    3.1069340
H    3.9903913    1.4158444    3.4699901
C    3.6530861    2.0597284    1.4555853
H    3.7085916    3.0905589    1.8709517
C   -3.9413924   -1.1166416    1.2991557
H   -4.0171926   -1.7520161    0.3918200
H   -4.9314430   -1.1394393    1.8072845
C   -2.8949109   -1.7051982    2.2700268
H   -3.3024688   -2.6712765    2.6428224
H   -2.8063018   -1.0561944    3.1666657
C   -3.6657182    0.3366816    0.9113013
H   -2.6807336    0.4078692    0.4199701
H   -3.6584277    0.9682974    1.8270428
C   -4.7302079    0.8368610   -0.0791191
H   -4.7199073    0.1656540   -0.9614467
H   -5.7430339    0.7607754    0.3731435
O   -3.7565548    4.0573691    1.0928908
O    5.3613490    1.5022098   -0.1273938
O   -0.6251565    0.0099198   -1.2261527
Fe    0.3298207   -1.1506653   -0.0468091
O   -0.9235637   -0.7787709    1.3795988
O   -0.8435253   -2.5599768   -0.5605637
O    1.2581884   -2.3568706    1.1421766
O    1.5152473   -1.5954964   -1.4232140
$end

$rem
BASIS  =  gen
DFT_D  =  D3_BJ
GUI  =  2
JOB_TYPE  =  Optimization
METHOD  =  B3LYP
PURECART  =  11
SCF_CONVERGENCE  =  8
SOLVENT_METHOD  =  PCM
$end

$basis
H     0
S   4   1.00
1.301000D+01           1.968500D-02
1.962000D+00           1.379770D-01
4.446000D-01           4.781480D-01
1.220000D-01           5.012400D-01
S   1   1.00
1.220000D-01           1.000000D+00
P   1   1.00
7.270000D-01           1.0000000
****
C     0
S   9   1.00
6.665000D+03           6.920000D-04
1.000000D+03           5.329000D-03
2.280000D+02           2.707700D-02
6.471000D+01           1.017180D-01
2.106000D+01           2.747400D-01
7.495000D+00           4.485640D-01
2.797000D+00           2.850740D-01
5.215000D-01           1.520400D-02
1.596000D-01          -3.191000D-03
S   9   1.00
6.665000D+03          -1.460000D-04
1.000000D+03          -1.154000D-03
2.280000D+02          -5.725000D-03
6.471000D+01          -2.331200D-02
2.106000D+01          -6.395500D-02
7.495000D+00          -1.499810D-01
2.797000D+00          -1.272620D-01
5.215000D-01           5.445290D-01
1.596000D-01           5.804960D-01
S   1   1.00
1.596000D-01           1.000000D+00
P   4   1.00
9.439000D+00           3.810900D-02
2.002000D+00           2.094800D-01
5.456000D-01           5.085570D-01
1.517000D-01           4.688420D-01
P   1   1.00
1.517000D-01           1.000000D+00
D   1   1.00
5.500000D-01           1.0000000
****
N     0
S   9   1.00
9.046000D+03           7.000000D-04
1.357000D+03           5.389000D-03
3.093000D+02           2.740600D-02
8.773000D+01           1.032070D-01
2.856000D+01           2.787230D-01
1.021000D+01           4.485400D-01
3.838000D+00           2.782380D-01
7.466000D-01           1.544000D-02
2.248000D-01          -2.864000D-03
S   9   1.00
9.046000D+03          -1.530000D-04
1.357000D+03          -1.208000D-03
3.093000D+02          -5.992000D-03
8.773000D+01          -2.454400D-02
2.856000D+01          -6.745900D-02
1.021000D+01          -1.580780D-01
3.838000D+00          -1.218310D-01
7.466000D-01           5.490030D-01
2.248000D-01           5.788150D-01
S   1   1.00
2.248000D-01           1.000000D+00
P   4   1.00
1.355000D+01           3.991900D-02
2.917000D+00           2.171690D-01
7.973000D-01           5.103190D-01
2.185000D-01           4.622140D-01
P   1   1.00
2.185000D-01           1.000000D+00
D   1   1.00
8.170000D-01           1.0000000
****
O     0
S   9   1.00
1.172000D+04           7.100000D-04
1.759000D+03           5.470000D-03
4.008000D+02           2.783700D-02
1.137000D+02           1.048000D-01
3.703000D+01           2.830620D-01
1.327000D+01           4.487190D-01
5.025000D+00           2.709520D-01
1.013000D+00           1.545800D-02
3.023000D-01          -2.585000D-03
S   9   1.00
1.172000D+04          -1.600000D-04
1.759000D+03          -1.263000D-03
4.008000D+02          -6.267000D-03
1.137000D+02          -2.571600D-02
3.703000D+01          -7.092400D-02
1.327000D+01          -1.654110D-01
5.025000D+00          -1.169550D-01
1.013000D+00           5.573680D-01
3.023000D-01           5.727590D-01
S   1   1.00
3.023000D-01           1.000000D+00
P   4   1.00
1.770000D+01           4.301800D-02
3.854000D+00           2.289130D-01
1.046000D+00           5.087280D-01
2.753000D-01           4.605310D-01
P   1   1.00
2.753000D-01           1.000000D+00
D   1   1.00
1.185000D+00           1.0000000
****
Fe     0
S   20   1.00
4.316265D+06           8.048803D-06
6.463424D+05           6.258306D-05
1.470897D+05           3.290239D-04
4.166152D+04           1.387355D-03
1.359077D+04           5.023256D-03
4.905750D+03           1.610140D-02
1.912746D+03           4.590034D-02
7.926043D+02           1.136154D-01
3.448065D+02           2.283869D-01
1.558999D+02           3.221159D-01
7.223091D+01           2.383661D-01
3.272506D+01           7.404667D-02
1.566762D+01           9.214197D-02
7.503483D+00           9.339790D-02
3.312223D+00           1.573965D-02
1.558471D+00          -4.186682D-04
6.839140D-01           5.376318D-05
1.467570D-01          -3.816654D-05
7.058300D-02           4.319603D-05
3.144900D-02          -3.401019D-06
S   20   1.00
4.316265D+06          -4.155954D-06
6.463424D+05          -3.231401D-05
1.470897D+05          -1.699525D-04
4.166152D+04          -7.171369D-04
1.359077D+04          -2.603625D-03
4.905750D+03          -8.399109D-03
1.912746D+03          -2.434109D-02
7.926043D+02          -6.251948D-02
3.448065D+02          -1.365929D-01
1.558999D+02          -2.312707D-01
7.223091D+01          -2.383734D-01
3.272506D+01           3.123837D-02
1.566762D+01           5.086818D-01
7.503483D+00           4.987695D-01
3.312223D+00           9.033552D-02
1.558471D+00          -6.005337D-03
6.839140D-01           2.312454D-04
1.467570D-01          -5.643680D-04
7.058300D-02           4.992260D-04
3.144900D-02          -1.015293D-04
S   20   1.00
4.316265D+06           9.532178D-07
6.463424D+05           7.414605D-06
1.470897D+05           3.898393D-05
4.166152D+04           1.647152D-04
1.359077D+04           5.985980D-04
4.905750D+03           1.942390D-03
1.912746D+03           5.687237D-03
7.926043D+02           1.501329D-02
3.448065D+02           3.452455D-02
1.558999D+02           6.495820D-02
7.223091D+01           7.716194D-02
3.272506D+01          -1.873411D-02
1.566762D+01          -3.009185D-01
7.503483D+00          -4.554661D-01
3.312223D+00           1.286463D-01
1.558471D+00           7.183316D-01
6.839140D-01           4.051743D-01
1.467570D-01           2.168227D-02
7.058300D-02          -8.343566D-03
3.144900D-02           3.658979D-03
S   20   1.00
4.316265D+06          -2.063008D-07
6.463424D+05          -1.604169D-06
1.470897D+05          -8.438437D-06
4.166152D+04          -3.563151D-05
1.359077D+04          -1.295998D-04
4.905750D+03          -4.201534D-04
1.912746D+03          -1.231954D-03
7.926043D+02          -3.248922D-03
3.448065D+02          -7.493717D-03
1.558999D+02          -1.410102D-02
7.223091D+01          -1.691600D-02
3.272506D+01           4.218996D-03
1.566762D+01           6.833810D-02
7.503483D+00           1.098201D-01
3.312223D+00          -4.009005D-02
1.558471D+00          -2.174739D-01
6.839140D-01          -2.465135D-01
1.467570D-01           2.731435D-01
7.058300D-02           5.748321D-01
3.144900D-02           3.012713D-01
S   20   1.00
4.316265D+06          -4.009367D-07
6.463424D+05          -3.189255D-06
1.470897D+05          -1.623079D-05
4.166152D+04          -7.157920D-05
1.359077D+04          -2.463958D-04
4.905750D+03          -8.544907D-04
1.912746D+03          -2.307593D-03
7.926043D+02          -6.728292D-03
3.448065D+02          -1.366165D-02
1.558999D+02          -3.062240D-02
7.223091D+01          -2.631137D-02
3.272506D+01          -9.760183D-03
1.566762D+01           1.801906D-01
7.503483D+00           1.529634D-01
3.312223D+00           5.505413D-02
1.558471D+00          -9.551364D-01
6.839140D-01           2.586813D-01
1.467570D-01           1.834049D+00
7.058300D-02          -9.333240D-01
3.144900D-02          -6.981605D-01
S   1   1.00
3.144900D-02           1.000000D+00
P   16   1.00
1.774569D+04           4.100000D-05
4.200721D+03           3.690000D-04
1.364429D+03           2.129000D-03
5.220806D+02           9.369000D-03
2.214595D+02           3.309700D-02
1.009096D+02           9.443100D-02
4.840115D+01           2.080770D-01
2.398536D+01           3.323330D-01
1.218250D+01           3.329870D-01
6.242298D+00           1.568430D-01
3.110944D+00           2.154900D-02
1.509958D+00          -2.095000D-03
7.108450D-01          -1.739000D-03
2.731900D-01          -3.000000D-04
1.042330D-01           2.900000D-05
3.829100D-02          -1.100000D-05
P   16   1.00
1.774569D+04          -1.500000D-05
4.200721D+03          -1.300000D-04
1.364429D+03          -7.510000D-04
5.220806D+02          -3.329000D-03
2.214595D+02          -1.191200D-02
1.009096D+02          -3.493300D-02
4.840115D+01          -7.998900D-02
2.398536D+01          -1.346360D-01
1.218250D+01          -1.385980D-01
6.242298D+00           3.027800D-02
3.110944D+00           3.332160D-01
1.509958D+00           4.561530D-01
7.108450D-01           2.850510D-01
2.731900D-01           4.614400D-02
1.042330D-01          -3.249000D-03
3.829100D-02           1.357000D-03
P   16   1.00
1.774569D+04           5.000000D-06
4.200721D+03           4.200000D-05
1.364429D+03           2.410000D-04
5.220806D+02           1.085000D-03
2.214595D+02           3.831000D-03
1.009096D+02           1.142300D-02
4.840115D+01           2.579200D-02
2.398536D+01           4.481800D-02
1.218250D+01           4.459800D-02
6.242298D+00          -1.117700D-02
3.110944D+00          -1.381340D-01
1.509958D+00          -1.882850D-01
7.108450D-01          -1.073990D-01
2.731900D-01           4.448630D-01
1.042330D-01           6.402390D-01
3.829100D-02           6.445700D-02
P   16   1.00
1.774569D+04           3.000000D-06
4.200721D+03           2.900000D-05
1.364429D+03           1.650000D-04
5.220806D+02           7.340000D-04
2.214595D+02           2.626000D-03
1.009096D+02           7.725000D-03
4.840115D+01           1.773300D-02
2.398536D+01           3.005500D-02
1.218250D+01           3.109400D-02
6.242298D+00          -1.004800D-02
3.110944D+00          -8.830600D-02
1.509958D+00          -1.298240D-01
7.108450D-01          -7.693700D-02
2.731900D-01           2.126610D-01
1.042330D-01           5.730610D-01
3.829100D-02           3.696510D-01
P   1   1.00
3.829100D-02           1.000000D+00
D   8   1.00
1.133440D+02           3.530000D-03
3.364140D+01           2.578400D-02
1.233100D+01           9.911900D-02
4.994780D+00           2.390730D-01
2.072800D+00           3.571990D-01
8.307530D-01           3.621880D-01
3.091780D-01           2.364610D-01
1.001300D-01           6.011800D-02
D   8   1.00
1.133440D+02          -3.890000D-03
3.364140D+01          -2.844200D-02
1.233100D+01          -1.124290D-01
4.994780D+00          -2.742570D-01
2.072800D+00          -3.155460D-01
8.307530D-01           5.710900D-02
3.091780D-01           5.636040D-01
1.001300D-01           3.846370D-01
D   1   1.00
1.001300D-01           1.000000D+00
F   2   1.00
3.224300D+00           4.222490D-01
7.758000D-01           7.714680D-01
****
$end

$pcm
THEORY  CPCM
$end

$solvent
DIELECTRIC  78.39
$end

$van_der_waals
26   2.44
$end

--------------------------------------------------------------
 Adding empirical dispersion correction 
 ----------------------------------------------------------------
 Doing -D3(BJ) with
 s6  =   1.00000
 s8  =   1.98890
 a1  =   0.39810
 a2  =   4.42110
 -D3 energy without 3body term =     -0.1552412316 hartrees
 ----------------------------------------------------------------
             Standard Nuclear Orientation (Angstroms)
    I     Atom           X                Y                Z
 ----------------------------------------------------------------
    1      N      -1.5516640000    -1.9590185000     1.6933385000
    2      C      -4.4772349000     2.2919230000    -0.5359775000
    3      H      -5.2104977000     2.5595949000    -1.3278922000
    4      N      -3.1290545000     2.4332358000    -1.0786952000
    5      H      -2.4590576000     3.0633377000    -0.6141248000
    6      C      -4.7236171000     3.2433796000     0.6243315000
    7      O      -5.8284097000     3.2820970000     1.1428998000
    8      C      -2.6858120000     1.7848543000    -2.1909104000
    9      O      -3.4259495000     1.0577861000    -2.8410641000
   10      C      -1.5746854000    -2.8549301000     0.5563908000
   11      C      -2.2862071000    -4.1844489000     0.6044844000
   12      H      -1.9051541000    -4.8036467000     1.4426668000
   13      H      -3.3817639000    -4.0460522000     0.7268172000
   14      H      -2.1273323000    -4.7349378000    -0.3479300000
   15      C      -1.2568298000     1.9790893000    -2.6146333000
   16      H      -1.1042621000     3.0789198000    -2.6786828000
   17      H      -1.0747553000     1.6109915000    -3.6578639000
   18      C      -0.3363038000     1.2879354000    -1.5933036000
   19      C       0.7134522000     1.9461876000    -1.0652501000
   20      H       0.8822439000     2.9814210000    -1.3743005000
   21      C       1.6598598000     1.3969376000    -0.0487121000
   22      O       1.5306557000     0.2701534000     0.4149468000
   23      N       2.7097650000     2.1970888000     0.3352014000
   24      H       2.8539102000     3.0613328000    -0.2107352000
   25      C       5.0863825000     1.7966207000     1.0248196000
   26      O       6.0847818000     1.9488475000     1.9211260000
   27      N       2.4301057000    -2.7445617000     0.5603547000
   28      C       2.5606443000    -2.2284524000    -0.7928852000
   29      C       3.7786945000    -2.4954005000    -1.6198787000
   30      H       3.4947053000    -3.0696746000    -2.5254932000
   31      H       4.2218853000    -1.5245760000    -1.9250900000
   32      H       4.5411307000    -3.0792387000    -1.0750148000
   33      C       3.5723806000    -2.4975164000     1.4852226000
   34      H       3.3916815000    -2.9922698000     2.4641877000
   35      H       4.4717571000    -2.9946180000     1.0721534000
   36      C       3.9338116000    -1.0195331000     1.7142165000
   37      H       4.9405542000    -0.9468527000     2.1810301000
   38      H       3.9833236000    -0.5504661000     0.7145416000
   39      C       2.9649305000    -0.2819999000     2.6518160000
   40      H       1.9163462000    -0.4782037000     2.4100697000
   41      H       3.0262552000    -0.6934673000     3.6830691000
   42      C       3.1995640000     1.2441682000     2.7090884000
   43      H       2.2686571000     1.7052706000     3.1069340000
   44      H       3.9903913000     1.4158444000     3.4699901000
   45      C       3.6530861000     2.0597284000     1.4555853000
   46      H       3.7085916000     3.0905589000     1.8709517000
   47      C      -3.9413924000    -1.1166416000     1.2991557000
   48      H      -4.0171926000    -1.7520161000     0.3918200000
   49      H      -4.9314430000    -1.1394393000     1.8072845000
   50      C      -2.8949109000    -1.7051982000     2.2700268000
   51      H      -3.3024688000    -2.6712765000     2.6428224000
   52      H      -2.8063018000    -1.0561944000     3.1666657000
   53      C      -3.6657182000     0.3366816000     0.9113013000
   54      H      -2.6807336000     0.4078692000     0.4199701000
   55      H      -3.6584277000     0.9682974000     1.8270428000
   56      C      -4.7302079000     0.8368610000    -0.0791191000
   57      H      -4.7199073000     0.1656540000    -0.9614467000
   58      H      -5.7430339000     0.7607754000     0.3731435000
   59      O      -3.7565548000     4.0573691000     1.0928908000
   60      O       5.3613490000     1.5022098000    -0.1273938000
   61      O      -0.6251565000     0.0099198000    -1.2261527000
   62      Fe      0.3298207000    -1.1506653000    -0.0468091000
   63      O      -0.9235637000    -0.7787709000     1.3795988000
   64      O      -0.8435253000    -2.5599768000    -0.5605637000
   65      O       1.2581884000    -2.3568706000     1.1421766000
   66      O       1.5152473000    -1.5954964000    -1.4232140000
 ----------------------------------------------------------------
 Nuclear Repulsion Energy =        5415.89657957 hartrees
 There are      152 alpha and      147 beta electrons
 Requested basis set is non-standard
 There are 318 shells and 692 basis functions

 Total QAlloc Memory Limit   8000 MB
 Mega-Array Size       188 MB
 MEM_STATIC part       192 MB

 -----------------------------------------------------------------------
                STARTING GEOMETRY OPTIMIZER USING LIBOPT3
                by Peter F. McLaughlin, Yu Zhang, Evgeny Epifanovsky
 -----------------------------------------------------------------------

              Initial Energy and Gradient Calculation
   -- Checking Topology for Ill-Behaving Coordinates --

 -------------------------------------------
   Coordinate       |  Removed | Additions 
 -------------------------------------------
	Bonds                     0          0
	Angles                    3          0
	Torsions                  6          6
	Co-Linear Type5s          0          6
	Co-Linear Type6s          0          6
 -------------------------------------------

 ** Ill-Behaving Topology Definitions (No action needed.) **

  Ill-Defined Angles Removed: 
  22  62  64,  61  62  65,  63  62  66

  Ill-Defined Torsions Removed: 
   1  63  62  66,  18  61  62  65,  21  22  62  64,  22  62  64  10,  61  62  65  27
  63  62  66  28

     Done Checking Topology
 Adding empirical dispersion correction 
 ----------------------------------------------------------------
 Doing -D3(BJ) with
 s6  =   1.00000
 s8  =   1.98890
 a1  =   0.39810
 a2  =   4.42110
 -D3 energy without 3body term =     -0.1552412316 hartrees
 ----------------------------------------------------------------
             Standard Nuclear Orientation (Angstroms)
    I     Atom           X                Y                Z
 ----------------------------------------------------------------
    1      N      -1.5516640000    -1.9590185000     1.6933385000
    2      C      -4.4772349000     2.2919230000    -0.5359775000
    3      H      -5.2104977000     2.5595949000    -1.3278922000
    4      N      -3.1290545000     2.4332358000    -1.0786952000
    5      H      -2.4590576000     3.0633377000    -0.6141248000
    6      C      -4.7236171000     3.2433796000     0.6243315000
    7      O      -5.8284097000     3.2820970000     1.1428998000
    8      C      -2.6858120000     1.7848543000    -2.1909104000
    9      O      -3.4259495000     1.0577861000    -2.8410641000
   10      C      -1.5746854000    -2.8549301000     0.5563908000
   11      C      -2.2862071000    -4.1844489000     0.6044844000
   12      H      -1.9051541000    -4.8036467000     1.4426668000
   13      H      -3.3817639000    -4.0460522000     0.7268172000
   14      H      -2.1273323000    -4.7349378000    -0.3479300000
   15      C      -1.2568298000     1.9790893000    -2.6146333000
   16      H      -1.1042621000     3.0789198000    -2.6786828000
   17      H      -1.0747553000     1.6109915000    -3.6578639000
   18      C      -0.3363038000     1.2879354000    -1.5933036000
   19      C       0.7134522000     1.9461876000    -1.0652501000
   20      H       0.8822439000     2.9814210000    -1.3743005000
   21      C       1.6598598000     1.3969376000    -0.0487121000
   22      O       1.5306557000     0.2701534000     0.4149468000
   23      N       2.7097650000     2.1970888000     0.3352014000
   24      H       2.8539102000     3.0613328000    -0.2107352000
   25      C       5.0863825000     1.7966207000     1.0248196000
   26      O       6.0847818000     1.9488475000     1.9211260000
   27      N       2.4301057000    -2.7445617000     0.5603547000
   28      C       2.5606443000    -2.2284524000    -0.7928852000
   29      C       3.7786945000    -2.4954005000    -1.6198787000
   30      H       3.4947053000    -3.0696746000    -2.5254932000
   31      H       4.2218853000    -1.5245760000    -1.9250900000
   32      H       4.5411307000    -3.0792387000    -1.0750148000
   33      C       3.5723806000    -2.4975164000     1.4852226000
   34      H       3.3916815000    -2.9922698000     2.4641877000
   35      H       4.4717571000    -2.9946180000     1.0721534000
   36      C       3.9338116000    -1.0195331000     1.7142165000
   37      H       4.9405542000    -0.9468527000     2.1810301000
   38      H       3.9833236000    -0.5504661000     0.7145416000
   39      C       2.9649305000    -0.2819999000     2.6518160000
   40      H       1.9163462000    -0.4782037000     2.4100697000
   41      H       3.0262552000    -0.6934673000     3.6830691000
   42      C       3.1995640000     1.2441682000     2.7090884000
   43      H       2.2686571000     1.7052706000     3.1069340000
   44      H       3.9903913000     1.4158444000     3.4699901000
   45      C       3.6530861000     2.0597284000     1.4555853000
   46      H       3.7085916000     3.0905589000     1.8709517000
   47      C      -3.9413924000    -1.1166416000     1.2991557000
   48      H      -4.0171926000    -1.7520161000     0.3918200000
   49      H      -4.9314430000    -1.1394393000     1.8072845000
   50      C      -2.8949109000    -1.7051982000     2.2700268000
   51      H      -3.3024688000    -2.6712765000     2.6428224000
   52      H      -2.8063018000    -1.0561944000     3.1666657000
   53      C      -3.6657182000     0.3366816000     0.9113013000
   54      H      -2.6807336000     0.4078692000     0.4199701000
   55      H      -3.6584277000     0.9682974000     1.8270428000
   56      C      -4.7302079000     0.8368610000    -0.0791191000
   57      H      -4.7199073000     0.1656540000    -0.9614467000
   58      H      -5.7430339000     0.7607754000     0.3731435000
   59      O      -3.7565548000     4.0573691000     1.0928908000
   60      O       5.3613490000     1.5022098000    -0.1273938000
   61      O      -0.6251565000     0.0099198000    -1.2261527000
   62      Fe      0.3298207000    -1.1506653000    -0.0468091000
   63      O      -0.9235637000    -0.7787709000     1.3795988000
   64      O      -0.8435253000    -2.5599768000    -0.5605637000
   65      O       1.2581884000    -2.3568706000     1.1421766000
   66      O       1.5152473000    -1.5954964000    -1.4232140000
 ----------------------------------------------------------------
 Nuclear Repulsion Energy =        5415.89657957 hartrees
 There are      152 alpha and      147 beta electrons
 Using C-PCM dielectric factor f(eps) = (eps-1)/eps = 0.987243
No default van der Waals radius is available for Z = 26
	Found R = 2.4400 A in the $van_der_waals section
 Discretize the solute cavity surface with Lebedev spheres
	Using 110 Lebedev grid points for each H atom
	Using 194 Lebedev grid points for other atoms
	Atomic van der Waals radii (Bondi set) will be scaled by 1.20
 Using smooth SwiG surface discretization
 Remove points where switching function is < 1.0e-08
 Keep 3878 surface tesserae and discard 6490 interior tesserae
 Molecular Surface Area = 499.345 Angst**2

 Requested basis set is non-standard
 There are 318 shells and 692 basis functions
 A cutoff of  1.0D-12 yielded  40875 shell pairs
 There are    177837 function pairs (    197541 Cartesian)
 Smallest overlap matrix eigenvalue = 1.70E-04

 Scale SEOQF with 1.000000e-02/1.000000e-01/1.000000e-01

 Standard Electronic Orientation quadrupole field applied
 Nucleus-field energy     =     0.0000000362 hartrees
 ================ Generating on-the-fly SAD Guess ================
 Attempting to make child job directory: /data/scratch/C_FeABstar_enol_ccL_2sextet_SkS_b3lypD3bj_ccpVDZ_pcmH2O_opt20230613142922//Frg1/
 Attempting to make child job directory: /data/scratch/C_FeABstar_enol_ccL_2sextet_SkS_b3lypD3bj_ccpVDZ_pcmH2O_opt20230613142922//Frg2/
 Attempting to make child job directory: /data/scratch/C_FeABstar_enol_ccL_2sextet_SkS_b3lypD3bj_ccpVDZ_pcmH2O_opt20230613142922//Frg3/
 Attempting to make child job directory: /data/scratch/C_FeABstar_enol_ccL_2sextet_SkS_b3lypD3bj_ccpVDZ_pcmH2O_opt20230613142922//Frg4/
 Attempting to make child job directory: /data/scratch/C_FeABstar_enol_ccL_2sextet_SkS_b3lypD3bj_ccpVDZ_pcmH2O_opt20230613142922//Frg5/
 Creating input file /data/scratch/C_FeABstar_enol_ccL_2sextet_SkS_b3lypD3bj_ccpVDZ_pcmH2O_opt20230613142922/Frg1.input
 using default PutDataFrgm: nothing
 calling putenv with: QCSCRATCH=/data/scratch/C_FeABstar_enol_ccL_2sextet_SkS_b3lypD3bj_ccpVDZ_pcmH2O_opt20230613142922/ 
 Spawning Job For Fragment 0
 Done Job For Fragment 0
 calling putenv with: QCSCRATCH=/data/scratch 
 calling putenv with: QCTHREADS=20 
 Creating input file /data/scratch/C_FeABstar_enol_ccL_2sextet_SkS_b3lypD3bj_ccpVDZ_pcmH2O_opt20230613142922/Frg2.input
 using default PutDataFrgm: nothing
 calling putenv with: QCSCRATCH=/data/scratch/C_FeABstar_enol_ccL_2sextet_SkS_b3lypD3bj_ccpVDZ_pcmH2O_opt20230613142922/ 
 Spawning Job For Fragment 1
 Done Job For Fragment 1
 calling putenv with: QCSCRATCH=/data/scratch 
 calling putenv with: QCTHREADS=20 
 Creating input file /data/scratch/C_FeABstar_enol_ccL_2sextet_SkS_b3lypD3bj_ccpVDZ_pcmH2O_opt20230613142922/Frg3.input
 using default PutDataFrgm: nothing
 calling putenv with: QCSCRATCH=/data/scratch/C_FeABstar_enol_ccL_2sextet_SkS_b3lypD3bj_ccpVDZ_pcmH2O_opt20230613142922/ 
 Spawning Job For Fragment 2
 Done Job For Fragment 2
 calling putenv with: QCSCRATCH=/data/scratch 
 calling putenv with: QCTHREADS=20 
 Creating input file /data/scratch/C_FeABstar_enol_ccL_2sextet_SkS_b3lypD3bj_ccpVDZ_pcmH2O_opt20230613142922/Frg4.input
 using default PutDataFrgm: nothing
 calling putenv with: QCSCRATCH=/data/scratch/C_FeABstar_enol_ccL_2sextet_SkS_b3lypD3bj_ccpVDZ_pcmH2O_opt20230613142922/ 
 Spawning Job For Fragment 3
 Done Job For Fragment 3
 calling putenv with: QCSCRATCH=/data/scratch 
 calling putenv with: QCTHREADS=20 
 Creating input file /data/scratch/C_FeABstar_enol_ccL_2sextet_SkS_b3lypD3bj_ccpVDZ_pcmH2O_opt20230613142922/Frg5.input
 using default PutDataFrgm: nothing
 calling putenv with: QCSCRATCH=/data/scratch/C_FeABstar_enol_ccL_2sextet_SkS_b3lypD3bj_ccpVDZ_pcmH2O_opt20230613142922/ 
 Spawning Job For Fragment 4
 Done Job For Fragment 4
 calling putenv with: QCSCRATCH=/data/scratch 
 calling putenv with: QCTHREADS=20 
 Time for running child jobs:  CPU 0.03 s  wall 56.83 s
 ============= Method Specific SAD Guess Constructed =============
 Guess from on-the-fly superposition of atomic densities
 Warning: Energy on first SCF cycle will be non-variational

 -----------------------------------------------------------------------
  General SCF calculation program by
  Eric Jon Sundstrom, Paul Horn, Yuezhi Mao, Dmitri Zuev, Alec White,
  David Stuck, Shaama M.S., Shane Yost, Joonho Lee, David Small,
  Daniel Levine, Susi Lehtola, Hugh Burton, Evgeny Epifanovsky,
  Bang C. Huynh
 -----------------------------------------------------------------------
 Exchange:     0.2000 Hartree-Fock + 0.0800 Slater + 0.7200 B88
 Correlation:  0.1900 VWN1RPA + 0.8100 LYP
 Using SG-1 standard quadrature grid
 Dispersion:   Grimme D3
 using 20 threads for integral computing
 -------------------------------------------------------
 OpenMP Integral computing Module                
 Release: version 1.0, May 2013, Q-Chem Inc. Pittsburgh 
 -------------------------------------------------------
 C-PCM solvent model [f = (eps-1)/eps], solve by matrix inversion
 A unrestricted SCF calculation will be
 performed using DIIS
 SCF converges when DIIS error is below 1.0e-08
 ---------------------------------------
  Cycle       Energy         DIIS error
 ---------------------------------------
    1   -3141.6058497252      1.62e-02  
    2   -3127.3376280559      2.27e-03  
    3   -3125.3670285506      3.96e-03  
    4   -3128.2873909734      1.00e-03  
    5   -3128.4650581333      3.74e-04  
    6   -3128.4722460291      3.43e-04  
    7   -3128.4899246456      1.08e-04  
    8   -3128.4922130740      3.98e-05  
    9   -3128.4925616497      2.24e-05  
   10   -3128.4927058432      1.02e-05  
   11   -3128.4927516635      5.40e-06  
   12   -3128.4927715499      2.85e-06  
   13   -3128.4927815835      2.02e-06  
   14   -3128.4927854118      9.43e-07  
   15   -3128.4927869057      5.50e-07  
   16   -3128.4927871021      2.86e-07  
   17   -3128.4927871357      1.26e-07  
   18   -3128.4927871414      7.30e-08  
   19   -3128.4927871434      3.55e-08  
   20   -3128.4927871444      2.27e-08  
   21   -3128.4927871448      1.57e-08  
   22   -3128.4927871450      1.13e-08  
   23   -3128.4927871453      4.75e-09  Convergence criterion met
 ---------------------------------------
 SCF time:   CPU 26694.46s  wall 1825.00s 
<S^2> =          8.760133939

************** Final PCM Free Energy Summary **************
 G_electrostatic  =      -0.29702477 hartree =    -186.38585366 kcal/mol
 G_cavitation     =       0.00000000 hartree =       0.00000000 kcal/mol
 G_dispersion     =       0.00000000 hartree =       0.00000000 kcal/mol
 G_repulsion      =       0.00000000 hartree =       0.00000000 kcal/mol
 --------------------------------------------------
 Non-electrostatic Free Energy =       0.00000000 hartree =       0.00000000 kcal/mol
 Total                         =      -0.29702477 hartree =    -186.38585366 kcal/mol
 --------------------------------------------------
 SCF Energy (H0 + V/2)                       =   -3128.49278715 
 Solute Internal Energy (H0)                 =   -3128.19576238 
 Total Free Energy (H0 + V/2 + non-elec)     =   -3128.49278715 hartree
                                             = -1963158.85388885 kcal/mol
***********************************************************

 SCF   energy in the final basis set =    -3128.4927871453
 Total energy in the final basis set =    -3128.4927871453
 
 --------------------------------------------------------------
 
                    Orbital Energies (a.u.)
 --------------------------------------------------------------
 
 Alpha MOs
 -- Occupied --
******** -30.1145 -25.9665 -25.9661 -25.9641 -19.1538 -19.1533 -19.1310
-19.1229 -19.1218 -19.1085 -19.0933 -19.0573 -19.0554 -19.0391 -19.0339
-14.4242 -14.4179 -14.3521 -14.3343 -10.3169 -10.3151 -10.2982 -10.2736
-10.2506 -10.2435 -10.2417 -10.2229 -10.2227 -10.2161 -10.2084 -10.2045
-10.2031 -10.1944 -10.1811 -10.1789 -10.1757 -10.1678 -10.1667 -10.1626
-10.1610  -3.6052  -2.3821  -2.3810  -2.3767  -1.0769  -1.0693  -1.0661
 -1.0272  -1.0095  -1.0054  -0.9974  -0.9971  -0.9815  -0.9143  -0.9048
 -0.8704  -0.8699  -0.8418  -0.8371  -0.7901  -0.7853  -0.7732  -0.7549
 -0.7476  -0.7333  -0.7235  -0.7094  -0.6829  -0.6738  -0.6374  -0.6228
 -0.6032  -0.5821  -0.5691  -0.5658  -0.5481  -0.5467  -0.5424  -0.5273
 -0.5232  -0.5191  -0.5132  -0.5074  -0.4974  -0.4873  -0.4848  -0.4770
 -0.4688  -0.4649  -0.4590  -0.4531  -0.4460  -0.4443  -0.4410  -0.4404
 -0.4307  -0.4286  -0.4270  -0.4264  -0.4222  -0.4180  -0.4149  -0.4109
 -0.4095  -0.4076  -0.4036  -0.4013  -0.3964  -0.3931  -0.3883  -0.3863
 -0.3801  -0.3788  -0.3764  -0.3708  -0.3669  -0.3666  -0.3606  -0.3602
 -0.3549  -0.3531  -0.3490  -0.3443  -0.3398  -0.3355  -0.3315  -0.3266
 -0.3238  -0.3194  -0.3139  -0.3117  -0.3087  -0.3053  -0.3036  -0.2987
 -0.2910  -0.2733  -0.2659  -0.2411  -0.2399  -0.2221  -0.2209  -0.2192
 -0.2156  -0.2105  -0.2091  -0.2083  -0.2065  -0.2023  -0.1887  -0.1843
 -- Virtual --
 -0.0479  -0.0446  -0.0168   0.0314   0.0362   0.0480   0.0537   0.0626
  0.0667   0.0704   0.0769   0.0843   0.0878   0.0914   0.0939   0.0976
  0.1021   0.1077   0.1121   0.1142   0.1203   0.1253   0.1270   0.1295
  0.1328   0.1368   0.1398   0.1403   0.1455   0.1523   0.1571   0.1616
  0.1651   0.1672   0.1694   0.1719   0.1794   0.1831   0.1852   0.1876
  0.1897   0.1942   0.1978   0.2017   0.2049   0.2110   0.2129   0.2175
  0.2190   0.2328   0.2349   0.2463   0.2501   0.2565   0.2579   0.2618
  0.2674   0.2788   0.2867   0.2927   0.3011   0.3027   0.3045   0.3100
  0.3182   0.3215   0.3228   0.3350   0.3460   0.3602   0.3658   0.3745
  0.3802   0.3848   0.3926   0.3963   0.4037   0.4060   0.4123   0.4195
  0.4280   0.4322   0.4381   0.4441   0.4475   0.4501   0.4515   0.4578
  0.4617   0.4720   0.4735   0.4787   0.4805   0.4850   0.4956   0.4982
  0.5042   0.5088   0.5114   0.5160   0.5226   0.5248   0.5355   0.5435
  0.5464   0.5519   0.5529   0.5569   0.5630   0.5655   0.5671   0.5738
  0.5786   0.5825   0.5905   0.5941   0.5953   0.6010   0.6050   0.6090
  0.6123   0.6152   0.6224   0.6255   0.6273   0.6285   0.6334   0.6359
  0.6377   0.6383   0.6452   0.6482   0.6497   0.6554   0.6572   0.6643
  0.6649   0.6691   0.6723   0.6745   0.6772   0.6794   0.6817   0.6839
  0.6869   0.6927   0.6952   0.6955   0.7022   0.7050   0.7086   0.7115
  0.7160   0.7219   0.7227   0.7243   0.7318   0.7354   0.7421   0.7498
  0.7527   0.7642   0.7661   0.7697   0.7750   0.7876   0.7915   0.7963
  0.8039   0.8090   0.8105   0.8207   0.8308   0.8356   0.8456   0.8500
  0.8543   0.8588   0.8648   0.8740   0.8752   0.8835   0.8899   0.8998
  0.9153   0.9164   0.9267   0.9320   0.9419   0.9495   0.9566   0.9585
  0.9700   0.9846   0.9894   0.9965   1.0051   1.0151   1.0179   1.0182
  1.0246   1.0253   1.0318   1.0361   1.0428   1.0613   1.0675   1.0798
  1.0831   1.0900   1.0968   1.1018   1.1081   1.1126   1.1165   1.1193
  1.1300   1.1426   1.1437   1.1521   1.1575   1.1635   1.1680   1.1700
  1.1765   1.1781   1.1863   1.1934   1.1967   1.2023   1.2101   1.2168
  1.2185   1.2268   1.2330   1.2367   1.2442   1.2476   1.2506   1.2573
  1.2645   1.2710   1.2732   1.2777   1.2840   1.2898   1.2952   1.2995
  1.3020   1.3092   1.3170   1.3237   1.3312   1.3387   1.3515   1.3558
  1.3604   1.3642   1.3724   1.3858   1.3919   1.3936   1.3956   1.3986
  1.4113   1.4182   1.4197   1.4226   1.4335   1.4438   1.4562   1.4584
  1.4676   1.4847   1.4919   1.4942   1.5002   1.5069   1.5129   1.5181
  1.5234   1.5266   1.5354   1.5377   1.5419   1.5547   1.5568   1.5617
  1.5637   1.5668   1.5733   1.5790   1.5868   1.5924   1.5937   1.6012
  1.6109   1.6156   1.6212   1.6227   1.6309   1.6337   1.6364   1.6387
  1.6411   1.6451   1.6478   1.6515   1.6582   1.6615   1.6666   1.6673
  1.6699   1.6737   1.6797   1.6835   1.6921   1.6930   1.6957   1.6992
  1.7036   1.7105   1.7127   1.7171   1.7220   1.7249   1.7292   1.7347
  1.7390   1.7482   1.7533   1.7539   1.7586   1.7627   1.7716   1.7721
  1.7735   1.7814   1.7841   1.7849   1.7922   1.8034   1.8048   1.8099
  1.8161   1.8168   1.8193   1.8261   1.8293   1.8363   1.8408   1.8438
  1.8487   1.8520   1.8584   1.8651   1.8718   1.8781   1.8828   1.8846
  1.8903   1.8962   1.8983   1.9030   1.9111   1.9137   1.9176   1.9348
  1.9419   1.9522   1.9612   1.9661   1.9712   1.9810   1.9817   1.9922
  1.9932   2.0057   2.0230   2.0255   2.0314   2.0362   2.0386   2.0574
  2.0601   2.0632   2.0692   2.0872   2.0924   2.0978   2.1074   2.1082
  2.1146   2.1197   2.1300   2.1349   2.1390   2.1450   2.1541   2.1595
  2.1613   2.1691   2.1773   2.1843   2.1874   2.1952   2.2023   2.2078
  2.2168   2.2209   2.2242   2.2312   2.2375   2.2473   2.2506   2.2571
  2.2641   2.2754   2.2786   2.2892   2.2902   2.2978   2.3089   2.3192
  2.3225   2.3281   2.3398   2.3415   2.3484   2.3555   2.3607   2.3700
  2.3742   2.3835   2.3944   2.3983   2.4008   2.4102   2.4128   2.4209
  2.4261   2.4331   2.4437   2.4460   2.4541   2.4579   2.4647   2.4703
  2.4768   2.4943   2.5039   2.5071   2.5157   2.5217   2.5368   2.5424
  2.5482   2.5559   2.5627   2.5716   2.5775   2.5918   2.6177   2.6222
  2.6308   2.6509   2.6602   2.6696   2.6833   2.6879   2.6952   2.7002
  2.7047   2.7098   2.7130   2.7189   2.7298   2.7326   2.7337   2.7409
  2.7443   2.7531   2.7643   2.7766   2.7835   2.7903   2.7965   2.8014
  2.8113   2.8227   2.8425   2.8528   2.8710   2.8842   2.8883   2.9149
  2.9322   2.9526   2.9628   2.9659   2.9861   3.0123   3.0212   3.0436
  3.0446   3.0471   3.0485   3.0641   3.0811   3.0972   3.1220   3.1255
  3.1359   3.1493   3.1678   3.1794   3.1882   3.2127   3.2266   3.2467
  3.3059   3.3434   3.3694   3.3762   3.3808   3.3885   3.4292   3.4658
  3.4901   3.4976   3.5181   3.5457   3.5685   3.5739   3.6046   3.6639
  3.6956   3.7187   3.7387   3.7525
 
 Beta MOs
 -- Occupied --
******** -30.0211 -25.8882 -25.8880 -25.8870 -19.1501 -19.1498 -19.1278
-19.1173 -19.1171 -19.1042 -19.0933 -19.0573 -19.0554 -19.0391 -19.0339
-14.4241 -14.4173 -14.3517 -14.3343 -10.3164 -10.3152 -10.2982 -10.2736
-10.2506 -10.2435 -10.2417 -10.2229 -10.2226 -10.2161 -10.2084 -10.2044
-10.2030 -10.1942 -10.1810 -10.1789 -10.1757 -10.1678 -10.1663 -10.1626
-10.1610  -3.3883  -2.1534  -2.1518  -2.1506  -1.0710  -1.0634  -1.0598
 -1.0271  -1.0015  -0.9975  -0.9974  -0.9970  -0.9733  -0.9129  -0.9047
 -0.8704  -0.8699  -0.8370  -0.8324  -0.7894  -0.7848  -0.7718  -0.7540
 -0.7467  -0.7319  -0.7223  -0.7085  -0.6822  -0.6731  -0.6361  -0.6219
 -0.5997  -0.5811  -0.5666  -0.5597  -0.5431  -0.5416  -0.5382  -0.5234
 -0.5192  -0.5106  -0.5048  -0.4960  -0.4920  -0.4833  -0.4791  -0.4664
 -0.4635  -0.4618  -0.4558  -0.4484  -0.4417  -0.4387  -0.4380  -0.4310
 -0.4277  -0.4262  -0.4222  -0.4185  -0.4162  -0.4111  -0.4088  -0.4038
 -0.4012  -0.3993  -0.3979  -0.3923  -0.3874  -0.3800  -0.3778  -0.3700
 -0.3675  -0.3663  -0.3625  -0.3568  -0.3542  -0.3535  -0.3491  -0.3453
 -0.3405  -0.3379  -0.3337  -0.3306  -0.3241  -0.3177  -0.3162  -0.3128
 -0.3109  -0.3056  -0.3036  -0.2936  -0.2863  -0.2827  -0.2673  -0.2612
 -0.2409  -0.2390  -0.2244  -0.2193  -0.2142  -0.2125  -0.2090  -0.2069
 -0.2033  -0.1887  -0.1842
 -- Virtual --
 -0.0758  -0.0717  -0.0666  -0.0375  -0.0333  -0.0087   0.0112   0.0158
  0.0318   0.0368   0.0485   0.0542   0.0631   0.0670   0.0706   0.0780
  0.0848   0.0883   0.0929   0.0956   0.0990   0.1026   0.1084   0.1128
  0.1153   0.1209   0.1260   0.1275   0.1301   0.1338   0.1375   0.1403
  0.1409   0.1459   0.1530   0.1585   0.1632   0.1661   0.1678   0.1705
  0.1724   0.1798   0.1839   0.1864   0.1886   0.1918   0.1954   0.1988
  0.2025   0.2058   0.2118   0.2141   0.2187   0.2198   0.2337   0.2361
  0.2468   0.2504   0.2569   0.2588   0.2627   0.2683   0.2797   0.2873
  0.2952   0.3028   0.3043   0.3099   0.3123   0.3210   0.3229   0.3260
  0.3399   0.3493   0.3639   0.3689   0.3770   0.3831   0.3881   0.3991
  0.4036   0.4075   0.4115   0.4176   0.4221   0.4320   0.4355   0.4408
  0.4462   0.4484   0.4517   0.4530   0.4603   0.4630   0.4740   0.4752
  0.4803   0.4833   0.4860   0.4966   0.5000   0.5049   0.5107   0.5130
  0.5181   0.5247   0.5262   0.5365   0.5445   0.5478   0.5532   0.5536
  0.5584   0.5638   0.5665   0.5687   0.5744   0.5797   0.5835   0.5916
  0.5948   0.5958   0.6022   0.6058   0.6098   0.6129   0.6168   0.6234
  0.6267   0.6282   0.6293   0.6343   0.6371   0.6382   0.6389   0.6460
  0.6488   0.6505   0.6574   0.6580   0.6654   0.6655   0.6704   0.6728
  0.6759   0.6783   0.6800   0.6826   0.6856   0.6884   0.6934   0.6960
  0.6965   0.7027   0.7074   0.7094   0.7132   0.7163   0.7225   0.7236
  0.7265   0.7325   0.7358   0.7453   0.7524   0.7537   0.7655   0.7702
  0.7718   0.7808   0.7918   0.7943   0.7981   0.8052   0.8122   0.8152
  0.8231   0.8353   0.8435   0.8474   0.8528   0.8567   0.8624   0.8662
  0.8761   0.8788   0.8860   0.8936   0.9080   0.9182   0.9245   0.9321
  0.9366   0.9463   0.9500   0.9580   0.9600   0.9717   0.9880   0.9914
  0.9987   1.0112   1.0177   1.0198   1.0207   1.0268   1.0293   1.0324
  1.0392   1.0492   1.0652   1.0697   1.0826   1.0840   1.0919   1.0976
  1.1042   1.1087   1.1141   1.1175   1.1207   1.1326   1.1440   1.1457
  1.1546   1.1591   1.1658   1.1708   1.1721   1.1776   1.1824   1.1891
  1.1962   1.1990   1.2039   1.2136   1.2186   1.2222   1.2302   1.2363
  1.2418   1.2482   1.2491   1.2521   1.2594   1.2669   1.2723   1.2761
  1.2793   1.2863   1.2920   1.2976   1.3008   1.3062   1.3115   1.3199
  1.3279   1.3348   1.3409   1.3551   1.3591   1.3638   1.3679   1.3781
  1.3891   1.3944   1.3970   1.4006   1.4041   1.4128   1.4214   1.4260
  1.4283   1.4417   1.4464   1.4598   1.4680   1.4717   1.4887   1.4959
  1.5019   1.5047   1.5134   1.5194   1.5247   1.5281   1.5367   1.5419
  1.5509   1.5527   1.5577   1.5608   1.5657   1.5689   1.5712   1.5788
  1.5871   1.5891   1.5949   1.5995   1.6038   1.6128   1.6199   1.6236
  1.6291   1.6335   1.6372   1.6393   1.6405   1.6438   1.6469   1.6499
  1.6553   1.6599   1.6631   1.6689   1.6702   1.6723   1.6791   1.6836
  1.6866   1.6944   1.6971   1.6999   1.7035   1.7055   1.7120   1.7183
  1.7207   1.7250   1.7281   1.7325   1.7371   1.7426   1.7499   1.7544
  1.7572   1.7641   1.7650   1.7736   1.7749   1.7769   1.7852   1.7877
  1.7904   1.7933   1.8066   1.8098   1.8133   1.8174   1.8199   1.8233
  1.8293   1.8335   1.8403   1.8454   1.8459   1.8528   1.8566   1.8608
  1.8668   1.8761   1.8807   1.8838   1.8894   1.8935   1.8998   1.9003
  1.9064   1.9143   1.9181   1.9222   1.9383   1.9451   1.9542   1.9622
  1.9689   1.9778   1.9828   1.9829   1.9937   1.9991   2.0075   2.0252
  2.0285   2.0332   2.0395   2.0415   2.0599   2.0660   2.0687   2.0712
  2.0901   2.0942   2.0986   2.1086   2.1103   2.1178   2.1212   2.1314
  2.1385   2.1431   2.1466   2.1556   2.1626   2.1649   2.1713   2.1811
  2.1852   2.1883   2.1970   2.2060   2.2103   2.2179   2.2221   2.2257
  2.2335   2.2407   2.2514   2.2540   2.2579   2.2653   2.2762   2.2824
  2.2918   2.2932   2.2997   2.3119   2.3223   2.3250   2.3300   2.3408
  2.3426   2.3508   2.3582   2.3629   2.3714   2.3800   2.3865   2.3969
  2.4014   2.4045   2.4116   2.4168   2.4233   2.4283   2.4347   2.4450
  2.4469   2.4564   2.4612   2.4656   2.4744   2.4795   2.4962   2.5085
  2.5104   2.5174   2.5245   2.5395   2.5436   2.5499   2.5575   2.5661
  2.5746   2.5846   2.5945   2.6202   2.6261   2.6388   2.6608   2.6668
  2.6786   2.6889   2.6958   2.7010   2.7033   2.7092   2.7130   2.7180
  2.7219   2.7316   2.7341   2.7384   2.7431   2.7563   2.7629   2.7697
  2.7807   2.7847   2.7925   2.8001   2.8108   2.8150   2.8304   2.8482
  2.8652   2.8739   2.8904   2.8979   2.9242   2.9447   2.9745   2.9768
  2.9959   3.0047   3.0310   3.0424   3.0460   3.0475   3.0634   3.0804
  3.0881   3.1194   3.1263   3.1276   3.1375   3.1407   3.1685   3.1881
  3.1988   3.2291   3.2671   3.2819   3.2993   3.3393   3.3636   3.3706
  3.3812   3.4029   3.4104   3.4438   3.4677   3.4902   3.4985   3.5196
  3.5595   3.5695   3.5739   3.6106   3.6737   3.7037   3.8123   3.8355
  3.8419
 --------------------------------------------------------------
 
          Ground-State Mulliken Net Atomic Charges

     Atom                 Charge (a.u.)    Spin (a.u.)
  --------------------------------------------------------
      1 N                    -0.076640       0.024148
      2 C                     0.049479       0.000014
      3 H                    -0.002197      -0.000030
      4 N                    -0.114972      -0.000055
      5 H                     0.079056       0.000014
      6 C                     0.066705      -0.000008
      7 O                    -0.393869       0.000008
      8 C                     0.106272      -0.000149
      9 O                    -0.345074       0.000123
     10 C                     0.168891      -0.000603
     11 C                     0.025238       0.001930
     12 H                     0.084424       0.000948
     13 H                     0.077512      -0.000592
     14 H                     0.065238       0.000795
     15 C                     0.087256       0.006915
     16 H                     0.039499       0.001538
     17 H                     0.043490      -0.000606
     18 C                     0.109434      -0.003195
     19 C                    -0.071715       0.026421
     20 H                    -0.024293       0.000127
     21 C                     0.231481       0.005188
     22 O                    -0.335908       0.078847
     23 N                    -0.129742       0.013073
     24 H                     0.122836       0.001609
     25 C                     0.072222       0.000380
     26 O                    -0.561669       0.000437
     27 N                    -0.062396       0.005716
     28 C                     0.140172       0.028642
     29 C                     0.031698      -0.000537
     30 H                     0.078248       0.001610
     31 H                     0.083148       0.000711
     32 H                     0.057119       0.002038
     33 C                     0.125838       0.002112
     34 H                     0.035133       0.000344
     35 H                     0.037368       0.001219
     36 C                    -0.023777       0.000349
     37 H                     0.004367      -0.000086
     38 H                     0.025834      -0.000002
     39 C                     0.004040      -0.000544
     40 H                     0.050928       0.002458
     41 H                    -0.021584       0.000485
     42 C                     0.022133       0.000368
     43 H                     0.001840       0.000003
     44 H                    -0.006674       0.000031
     45 C                     0.032845      -0.000592
     46 H                     0.027094       0.000371
     47 C                    -0.030982       0.000931
     48 H                     0.022619      -0.000046
     49 H                     0.017118       0.000170
     50 C                     0.114647       0.000497
     51 H                     0.039139       0.002012
     52 H                     0.036519       0.000841
     53 C                    -0.041461       0.000968
     54 H                     0.077343       0.002844
     55 H                    -0.005655      -0.000034
     56 C                     0.028280       0.000256
     57 H                    -0.005753       0.000005
     58 H                    -0.014840       0.000205
     59 O                    -0.548154       0.000007
     60 O                    -0.383115       0.000073
     61 O                    -0.451512       0.118221
     62 Fe                    0.757175       4.164803
     63 O                    -0.432518       0.172009
     64 O                    -0.371422       0.095156
     65 O                    -0.439705       0.136398
     66 O                    -0.384052       0.102713
  --------------------------------------------------------
  Sum of atomic charges =    -2.000000
  Sum of spin   charges =     5.000000

 -----------------------------------------------------------------
                    Cartesian Multipole Moments
 -----------------------------------------------------------------
    Charge (ESU x 10^10)
                -9.6064
    Dipole Moment (Debye)
         X       1.5193      Y     -21.9932      Z      -5.4526
       Tot      22.7099
    Quadrupole Moments (Debye-Ang)
        XX    -462.2194     XY      39.4988     YY    -271.1527
        XZ     -23.4799     YZ     -37.0159     ZZ    -256.8472
    Octopole Moments (Debye-Ang^2)
       XXX    -283.5500    XXY    -744.5437    XYY     215.9185
       YYY    -332.8482    XXZ    -303.4804    XYZ      68.1803
       YYZ    -170.5142    XZZ      14.5496    YZZ     -66.1192
       ZZZ    -178.1606
    Hexadecapole Moments (Debye-Ang^3)
      XXXX  -22980.3026   XXXY     964.7387   XXYY   -4911.0811
      XYYY    1940.4360   YYYY   -6799.1767   XXXZ   -1346.4083
      XXYZ    -804.0031   XYYZ      10.3329   YYYZ    -237.0761
      XXZZ   -3603.8592   XYZZ     267.6906   YYZZ   -1650.7316
      XZZZ    -909.4234   YZZZ     135.5270   ZZZZ   -3303.2403
 -----------------------------------------------------------------
 Calculating analytic gradient of the SCF energy
 Gradient of SCF Energy
            1           2           3           4           5           6
    1  -0.0088583  -0.0408805   0.0322983   0.0392796  -0.0335667  -0.1041459
    2   0.0007352   0.0031427  -0.0099043   0.0057860  -0.0311903   0.0351322
    3   0.0492595  -0.0218673   0.0338225   0.0062730  -0.0265294   0.0737505
            7           8           9          10          11          12
    1   0.1735367  -0.0563823   0.0880478  -0.0369433   0.0077636  -0.0081085
    2  -0.0092644  -0.0448754   0.0821706  -0.0353608   0.0026066   0.0118616
    3  -0.0780018  -0.0646634   0.0909198   0.0105584   0.0021839  -0.0191784
           13          14          15          16          17          18
    1   0.0221729  -0.0053303  -0.0094265  -0.0103127  -0.0047800   0.0376812
    2  -0.0031261   0.0099358   0.0054002  -0.0329401   0.0146903   0.0306281
    3  -0.0043711   0.0204399  -0.0032751  -0.0006223   0.0285683   0.0085614
           19          20          21          22          23          24
    1  -0.0576528  -0.0076475   0.0142121  -0.0131100  -0.0120055  -0.0035291
    2  -0.0088004  -0.0425933  -0.0813325   0.0945318   0.0120361  -0.0349150
    3  -0.0299078   0.0129675   0.0550489  -0.0646570  -0.0254213   0.0204989
           25          26          27          28          29          30
    1   0.0551376  -0.0405100   0.0161536   0.0531619  -0.0125860   0.0092162
    2  -0.0137035  -0.0136605  -0.0331117  -0.0103565   0.0098214   0.0129188
    3  -0.1193149  -0.0407839   0.0308859  -0.0191875   0.0008839   0.0238458
           31          32          33          34          35          36
    1  -0.0128223  -0.0187482  -0.0007270   0.0099661  -0.0226070   0.0166210
    2  -0.0314735   0.0134317   0.0013877   0.0148825   0.0134006   0.0043870
    3   0.0103468  -0.0142397   0.0075726  -0.0241681   0.0116076  -0.0085189
           37          38          39          40          41          42
    1  -0.0313313   0.0001578  -0.0164542   0.0436294  -0.0070385  -0.0058684
    2   0.0024214  -0.0182796  -0.0025562   0.0071817   0.0112537   0.0070711
    3  -0.0128330   0.0312266   0.0082865   0.0181301  -0.0316919   0.0179356
           43          44          45          46          47          48
    1   0.0301038  -0.0215253   0.0028981   0.0001336  -0.0083357   0.0018282
    2  -0.0156821  -0.0060958   0.0176121  -0.0363265  -0.0013002   0.0178037
    3  -0.0129145  -0.0266982   0.0148648  -0.0152690  -0.0073777   0.0274773
           49          50          51          52          53          54
    1   0.0248944   0.0034741   0.0068530  -0.0065730   0.0187335  -0.0437545
    2   0.0017295   0.0078974   0.0211306  -0.0203603   0.0023912   0.0016073
    3  -0.0142740   0.0078718  -0.0086205  -0.0270825   0.0081622   0.0198618
           55          56          57          58          59          60
    1   0.0008987  -0.0137860   0.0015796   0.0334950  -0.0528602  -0.0395443
    2  -0.0224611  -0.0133759   0.0245256   0.0049982  -0.0441163   0.0336355
    3  -0.0361271  -0.0026706   0.0286072  -0.0148136  -0.0168288   0.1733248
           61          62          63          64          65          66
    1   0.0281114   0.0116519   0.0132177   0.0430276  -0.0125623  -0.0596221
    2  -0.0043935  -0.0311001   0.0023089   0.0431068   0.0251932   0.0419010
    3   0.0274491  -0.0335415  -0.0284182  -0.0230482  -0.0182582   0.0139827
 Max gradient component =       1.735E-01
 RMS gradient           =       3.530E-02
 Computing fast CPCM-SWIG gradient
 Updating gradient with PCM contributions...
 -- total gradient after adding PCM contribution --
---------------------------------------------------
  Atom         X              Y              Z     
---------------------------------------------------
   1       0.020798       0.024692       0.064920
   2      -0.003506       0.007300       0.006547
   3      -0.002794       0.002810      -0.003140
   4      -0.025156      -0.009542       0.005844
   5       0.015272       0.004319      -0.003420
   6      -0.072411      -0.070046      -0.039114
   7       0.047980       0.017115      -0.003341
   8       0.016062      -0.000668      -0.004776
   9       0.015350       0.014853       0.014074
  10      -0.034527      -0.022476       0.029111
  11       0.002283      -0.001707       0.002032
  12       0.002985      -0.004397       0.002753
  13      -0.006662       0.000826      -0.002032
  14      -0.001626      -0.006816      -0.007519
  15      -0.013546      -0.007623      -0.002924
  16      -0.008912       0.006870      -0.006270
  17       0.007628       0.003453      -0.015132
  18       0.014046       0.046971      -0.006604
  19      -0.037158      -0.022256      -0.019607
  20      -0.000855       0.001148      -0.000603
  21      -0.007993      -0.062134       0.033905
  22      -0.010439       0.015637      -0.029057
  23       0.013475      -0.000724       0.010873
  24       0.005633       0.012779      -0.007309
  25      -0.083221      -0.007160      -0.059751
  26       0.066873       0.003628       0.023077
  27      -0.009980      -0.050202       0.054951
  28       0.040722      -0.001974       0.001994
  29      -0.004294       0.003002      -0.006467
  30       0.000436      -0.005395      -0.003307
  31       0.002789       0.004715       0.000010
  32       0.003411      -0.003161       0.001488
  33      -0.025364       0.010234      -0.003426
  34       0.008176       0.000171       0.010314
  35       0.006267       0.001142       0.001439
  36       0.009595       0.001832      -0.005135
  37       0.002686       0.004351       0.006928
  38      -0.001023      -0.003116      -0.006403
  39       0.006173      -0.001654      -0.000967
  40      -0.004320       0.000669       0.007351
  41      -0.009377      -0.002537       0.002418
  42       0.002768       0.001020      -0.006429
  43      -0.005762       0.000106       0.001947
  44       0.002255      -0.004935       0.008075
  45       0.010310      -0.008702      -0.022639
  46       0.000229       0.003982       0.002372
  47      -0.005162      -0.006167      -0.005731
  48      -0.000059      -0.002508      -0.003756
  49      -0.005188       0.004712       0.001496
  50       0.019068       0.014211      -0.013248
  51      -0.007821      -0.004098       0.001619
  52      -0.007057       0.003170       0.007194
  53       0.004332      -0.001705       0.008762
  54       0.002108      -0.000496      -0.005140
  55      -0.001730       0.002651       0.004651
  56       0.003113       0.005248      -0.001738
  57       0.000129      -0.005076      -0.003080
  58      -0.005286      -0.004137       0.002700
  59       0.024246       0.049291       0.041430
  60       0.012186       0.011692       0.049389
  61       0.013748      -0.063792       0.042348
  62       0.026623      -0.032366      -0.022675
  63       0.001074       0.003054      -0.020384
  64       0.076275       0.043409      -0.078750
  65      -0.006328       0.019010      -0.010409
  66      -0.099548       0.067496      -0.021730
---------------------------------------------------
 Number of fixed atoms: 0
 Gradient time:  CPU 17972.93 s  wall 935.93 s

 *****************************************************
             Starting BFGS Algorithm
 *****************************************************
            LIBOPT3 RUN PARAMETERS

  Geometry Optimization Coordinates :
	Delocalized Natural Internal Coordinates

  Step Length Selection Method :
	Eigenvector Following Algorithm

  Convergence Criteria :
	Max Gradient Component    	3.00000000e-04
	Max Displacement Component	1.20000000e-03
	Absolute Energy Difference	1.00000000e-06

  Initial Hessian :
	Approximate Hessian - Simple Internal Coordinate Scaled

  Type of Verification :
	Verify with final updated Hessian
 *****************************************************

	OPTIMIZATION CYCLE:	1

 Scaling Magnitude of Eigenvalues
 	Minimum: -25.00000000	 Maximum: 25.00000000
 192 Hessian Eigenvalues to form next step
   0.10000000   0.10000000   0.10000000   0.10000000   0.10000000
   0.10000000   0.10000000   0.10000000   0.10000001   0.10000006
   0.10000047   0.10000085   0.10000133   0.10000144   0.10000780
   0.10001193   0.10001911   0.10003024   0.10004272   0.10005521
   0.10009610   0.10012123   0.10018507   0.10038692   0.10073907
   0.10076856   0.10327880   0.10368335   0.10530236   0.10699299
   0.10982780   0.11178003   0.11219487   0.11233263   0.11565060
   0.11622697   0.11834173   0.11888396   0.12125084   0.12169471
   0.12179967   0.12287295   0.12349994   0.12445553   0.12535119
   0.12614111   0.12697591   0.12745771   0.12856927   0.12898672
   0.13133518   0.13313720   0.13446266   0.13465079   0.13571974
   0.13768344   0.13940836   0.13994194   0.14067991   0.14216339
   0.14247391   0.14354860   0.14454131   0.14684100   0.14807707
   0.15078441   0.15169066   0.15173635   0.15213480   0.15353946
   0.15723164   0.15843867   0.15915767   0.16049383   0.16055759
   0.16120604   0.16218185   0.17396183   0.17484810   0.17596366
   0.17674369   0.17678611   0.17870316   0.17945287   0.18073136
   0.18227698   0.18241634   0.18387462   0.18718637   0.18913918
   0.19107355   0.19351013   0.19444618   0.19476787   0.19741317
   0.19774290   0.19922163   0.19934692   0.19951203   0.19961507
   0.19964641   0.19992942   0.19994675   0.19999566   0.19999893
   0.19999992   0.20000000   0.20000000   0.20000000   0.20000000
   0.20000000   0.20000000   0.20000000   0.20000000   0.20376662
   0.20522653   0.20675958   0.22403381   0.23448121   0.28837098
   0.30358477   0.32715278   0.40775374   0.42374758   0.43060209
   0.43688245   0.45072360   0.46073040   0.46892704   0.47768200
   0.47839402   0.47947676   0.48734057   0.48919358   0.49679046
   0.49865023   0.49889475   0.49895601   0.49950776   0.49994796
   0.49996285   0.49999999   0.50000000   0.50000000   0.50000000
   0.50000000   0.50000000   0.50000000   0.50000000   0.50000000
   0.50000000   0.50000000   0.50000000   0.50000000   0.50000000
   0.50000000   0.50000000   0.50000000   0.50000000   0.50000000
   0.50000000   0.50000000   0.50000000   0.50000000   0.50000000
   0.50000000   0.50000000   0.50000000   0.50000000   0.50000000
   0.50000000   0.50000000   0.50000000   0.50000000   0.50000000
   0.50000000   0.50000000   0.50000000   0.50000000   0.50000000
   0.50000000   0.50000000   0.50000000   0.50000000   0.50000000
   0.50000000   0.50778276   0.50921193   0.51347516   0.51590492
   0.52184986   0.52893544

 Minimum Search taking a RFO step
 Searching for Lambda that minimizes along all modes
	Value of Lambda   -0.12636263
	Norm  of Stepsize  0.53112533
	RMS   of Stepsize  0.03833067

	Performing Iterative Coordinate Back-Transformation

	  Starting from Previous Position

	  iter:	0	rms: 8.3619146790e-02	maxdev: 3.6157754020e-01
	  iter:	1	rms: 2.8503643241e-03	maxdev: 1.9519072038e-02
	  iter:	2	rms: 1.1052017930e-05	maxdev: 1.4768987831e-04
	  iter:	3	rms: 3.5436869738e-10	maxdev: 4.7513233713e-09	 Success!

	Finished Iterative Coordinate Back-Transformation
 Adding empirical dispersion correction 
 ----------------------------------------------------------------
 Doing -D3(BJ) with
 s6  =   1.00000e+00
 s8  =   1.98890e+00
 a1  =   3.98100e-01
 a2  =   4.42110e+00
 -D3 energy without 3body term =     -1.5515307008e-01 hartrees
 ----------------------------------------------------------------
             Standard Nuclear Orientation (Angstroms)
    I     Atom           X                Y                Z
 ----------------------------------------------------------------
    1      N      -1.6213606360    -2.0012811677     1.6635113230
    2      C      -4.4732666260     2.2862195093    -0.5544654728
    3      H      -5.2119208458     2.5543611066    -1.3355057700
    4      N      -3.1328737616     2.4062050518    -1.1081109878
    5      H      -2.4844138073     3.0355840432    -0.6327034973
    6      C      -4.6524724238     3.2769946680     0.5884150183
    7      O      -5.7897181339     3.3336715318     1.1243783281
    8      C      -2.7021185304     1.7456892057    -2.2098992474
    9      O      -3.4372911702     0.9999070683    -2.8850556714
   10      C      -1.6377436784    -2.8642973300     0.5575802824
   11      C      -2.3598485200    -4.1762049375     0.6154179034
   12      H      -1.9911865581    -4.7853041020     1.4603139907
   13      H      -3.4490040209    -4.0278863162     0.7338634929
   14      H      -2.1929329637    -4.7249014183    -0.3271857321
   15      C      -1.2498559574     1.9706125784    -2.5726393329
   16      H      -1.0868492464     3.0645179406    -2.6244130393
   17      H      -1.0553561114     1.5926458031    -3.5971197845
   18      C      -0.3208515799     1.3188679884    -1.5501480216
   19      C       0.7297956963     2.0214803185    -1.0189193903
   20      H       0.8916533500     3.0571191274    -1.3269545156
   21      C       1.6530752012     1.4688630503    -0.0135150753
   22      O       1.5189669125     0.2999654118     0.4584404622
   23      N       2.6873561247     2.2498379216     0.3783827641
   24      H       2.8193667614     3.1108622706    -0.1510955029
   25      C       5.0672074408     1.8286324181     1.0025697604
   26      O       5.9733368034     1.9706565744     1.9173131280
   27      N       2.4660157388    -2.7280421563     0.5283886222
   28      C       2.6021155778    -2.2409698548    -0.7789460745
   29      C       3.8272678257    -2.5187285230    -1.5814083694
   30      H       3.5487112068    -3.0956615448    -2.4814463656
   31      H       4.2735472783    -1.5565909405    -1.8934967569
   32      H       4.5779857190    -3.0951498033    -1.0207418071
   33      C       3.6255909548    -2.4954873676     1.4286808640
   34      H       3.4508942101    -3.0107718776     2.3906520569
   35      H       4.5019976981    -2.9983953831     0.9836417128
   36      C       3.9796743222    -1.0164110476     1.6680570410
   37      H       4.9969685879    -0.9558432921     2.1012163182
   38      H       4.0025179808    -0.5290633139     0.6803568799
   39      C       3.0387750925    -0.2848084559     2.6367782584
   40      H       1.9903787674    -0.4899876097     2.4113761868
   41      H       3.1488697683    -0.7150617827     3.6537876376
   42      C       3.2443796841     1.2456235121     2.7296661188
   43      H       2.3263474069     1.6876963196     3.1642234273
   44      H       4.0567984612     1.4271348579     3.4569523436
   45      C       3.6422027602     2.0900419663     1.4855879307
   46      H       3.7003931238     3.1089211798     1.9193098221
   47      C      -3.9895534897    -1.1262180192     1.3081524014
   48      H      -4.0835237385    -1.7545994296     0.4023025175
   49      H      -4.9673174969    -1.1469209234     1.8303621878
   50      C      -2.9517858176    -1.7459371005     2.2625209675
   51      H      -3.3554551903    -2.7088109708     2.6302873865
   52      H      -2.8211662970    -1.1170788824     3.1609720580
   53      C      -3.7007284671     0.3208465751     0.9011359934
   54      H      -2.7219518505     0.3627064234     0.4019278021
   55      H      -3.6653598339     0.9586069079     1.8064545515
   56      C      -4.7605497773     0.8462876580    -0.0779046930
   57      H      -4.7820534798     0.1769873083    -0.9556135205
   58      H      -5.7655192687     0.8097226472     0.3838664822
   59      O      -3.6089406601     3.9782256043     0.9032830453
   60      O       5.2655019268     1.5478031822    -0.2096861123
   61      O      -0.6260718925     0.0705208607    -1.2235126709
   62      Fe      0.3130243112    -1.1425319949    -0.0342872999
   63      O      -0.9740653678    -0.8176445829     1.3881575298
   64      O      -0.9216700610    -2.5741399608    -0.4945466335
   65      O       1.2850676575    -2.3652982302     1.1320624317
   66      O       1.5940166097    -1.6432598715    -1.3740296838
 ----------------------------------------------------------------
 Nuclear Repulsion Energy =        5407.45662323 hartrees
 There are      152 alpha and      147 beta electrons
No default van der Waals radius is available for Z = 26
	Found R = 2.4400 A in the $van_der_waals section
 Discretize the solute cavity surface with Lebedev spheres
	Using 110 Lebedev grid points for each H atom
	Using 194 Lebedev grid points for other atoms
	Atomic van der Waals radii (Bondi set) will be scaled by 1.20
 Using smooth SwiG surface discretization
 Remove points where switching function is < 1.0e-08
 Keep 3847 surface tesserae and discard 6521 interior tesserae
 Molecular Surface Area = 497.338 Angst**2

 Applying Cartesian multipole field
    Component          Value
    ---------          -----
     (2,0,0)        1.00000E-12
     (0,2,0)        2.00000E-11
     (0,0,2)       -3.00000E-11
 Nucleus-field energy     = 3.8002681417e-08 hartrees
 Read the previous MOs as SCF guess

 -----------------------------------------------------------------------
  General SCF calculation program by
  Eric Jon Sundstrom, Paul Horn, Yuezhi Mao, Dmitri Zuev, Alec White,
  David Stuck, Shaama M.S., Shane Yost, Joonho Lee, David Small,
  Daniel Levine, Susi Lehtola, Hugh Burton, Evgeny Epifanovsky,
  Bang C. Huynh
 -----------------------------------------------------------------------
 Requested basis set is non-standard
 There are 318 shells and 692 basis functions
 Exchange:     0.2000 Hartree-Fock + 0.0800 Slater + 0.7200 B88
 Correlation:  0.1900 VWN1RPA + 0.8100 LYP
 Using SG-1 standard quadrature grid
 Dispersion:   Grimme D3
 A cutoff of  1.0D-12 yielded  40793 shell pairs
 There are    177341 function pairs (    196974 Cartesian)
 Smallest overlap matrix eigenvalue = 1.89E-04
 A unrestricted SCF calculation will be
 performed using DIIS
 SCF converges when DIIS error is below 1.0e-08
 ---------------------------------------
  Cycle       Energy         DIIS error
 ---------------------------------------
    1   -3128.4169694679      8.86e-04  
    2   -3128.4919104695      5.49e-04  
    3   -3128.5084571660      6.34e-04  
    4   -3128.5763055417      1.91e-04  
    5   -3128.5794962412      1.38e-04  
    6   -3128.5821804749      5.08e-05  
    7   -3128.5826160486      1.15e-05  
    8   -3128.5826379395      4.98e-06  
    9   -3128.5826427334      1.69e-06  
   10   -3128.5826433000      7.39e-07  
   11   -3128.5826434334      2.70e-07  
   12   -3128.5826434633      1.48e-07  
   13   -3128.5826434775      8.32e-08  
   14   -3128.5826434822      4.55e-08  
   15   -3128.5826434836      1.92e-08  
   16   -3128.5826434839      1.22e-08  
   17   -3128.5826434840      5.74e-09  Convergence criterion met
 ---------------------------------------
 SCF time:   CPU 20034.17s  wall 1362.00s 
<S^2> =          8.759482924

************** Final PCM Free Energy Summary **************
 G_electrostatic  =      -0.28867822 hartree =    -181.14831709 kcal/mol
 G_cavitation     =       0.00000000 hartree =       0.00000000 kcal/mol
 G_dispersion     =       0.00000000 hartree =       0.00000000 kcal/mol
 G_repulsion      =       0.00000000 hartree =       0.00000000 kcal/mol
 --------------------------------------------------
 Non-electrostatic Free Energy =       0.00000000 hartree =       0.00000000 kcal/mol
 Total                         =      -0.28867822 hartree =    -181.14831709 kcal/mol
 --------------------------------------------------
 SCF Energy (H0 + V/2)                       =   -3128.58264348 
 Solute Internal Energy (H0)                 =   -3128.29396526 
 Total Free Energy (H0 + V/2 + non-elec)     =   -3128.58264348 hartree
                                             = -1963215.23959246 kcal/mol
***********************************************************

 SCF   energy in the final basis set =    -3128.5826434840
 Total energy in the final basis set =    -3128.5826434840
 
 --------------------------------------------------------------
 
                    Orbital Energies (a.u.)
 --------------------------------------------------------------
 
 Alpha MOs
 -- Occupied --
******** -30.1214 -25.9740 -25.9732 -25.9708 -19.1521 -19.1508 -19.1245
-19.1243 -19.1226 -19.1138 -19.0939 -19.0561 -19.0554 -19.0540 -19.0470
-14.4145 -14.4103 -14.3503 -14.3311 -10.3074 -10.3067 -10.2928 -10.2737
-10.2524 -10.2461 -10.2436 -10.2209 -10.2198 -10.2090 -10.1997 -10.1994
-10.1986 -10.1890 -10.1799 -10.1756 -10.1732 -10.1661 -10.1653 -10.1617
-10.1592  -3.6097  -2.3862  -2.3858  -2.3803  -1.0808  -1.0743  -1.0469
 -1.0190  -1.0188  -1.0159  -0.9963  -0.9896  -0.9869  -0.9163  -0.9100
 -0.8957  -0.8923  -0.8479  -0.8439  -0.7891  -0.7850  -0.7715  -0.7540
 -0.7459  -0.7331  -0.7239  -0.7100  -0.6833  -0.6743  -0.6375  -0.6239
 -0.6002  -0.5832  -0.5666  -0.5621  -0.5478  -0.5462  -0.5435  -0.5291
 -0.5194  -0.5179  -0.5128  -0.5075  -0.4990  -0.4879  -0.4843  -0.4790
 -0.4669  -0.4662  -0.4585  -0.4518  -0.4447  -0.4440  -0.4411  -0.4398
 -0.4303  -0.4280  -0.4264  -0.4258  -0.4202  -0.4165  -0.4151  -0.4108
 -0.4102  -0.4069  -0.4032  -0.4011  -0.3959  -0.3935  -0.3930  -0.3869
 -0.3802  -0.3786  -0.3761  -0.3718  -0.3680  -0.3654  -0.3641  -0.3627
 -0.3576  -0.3551  -0.3504  -0.3458  -0.3416  -0.3380  -0.3340  -0.3292
 -0.3223  -0.3202  -0.3145  -0.3130  -0.3060  -0.3054  -0.3023  -0.2987
 -0.2917  -0.2727  -0.2652  -0.2417  -0.2408  -0.2277  -0.2211  -0.2202
 -0.2193  -0.2178  -0.2146  -0.2118  -0.2074  -0.2061  -0.2055  -0.1967
 -- Virtual --
 -0.0301  -0.0278  -0.0156   0.0293   0.0366   0.0497   0.0546   0.0638
  0.0680   0.0721   0.0787   0.0866   0.0895   0.0922   0.0959   0.0981
  0.1044   0.1088   0.1134   0.1168   0.1242   0.1282   0.1289   0.1327
  0.1350   0.1394   0.1426   0.1443   0.1484   0.1560   0.1621   0.1635
  0.1690   0.1717   0.1742   0.1781   0.1829   0.1879   0.1890   0.1916
  0.1992   0.2016   0.2054   0.2076   0.2131   0.2181   0.2194   0.2223
  0.2252   0.2365   0.2387   0.2486   0.2528   0.2605   0.2635   0.2704
  0.2729   0.2823   0.2907   0.2925   0.3045   0.3065   0.3095   0.3203
  0.3244   0.3279   0.3380   0.3414   0.3433   0.3599   0.3694   0.3732
  0.3835   0.3872   0.3917   0.3965   0.4015   0.4125   0.4177   0.4226
  0.4297   0.4351   0.4413   0.4421   0.4499   0.4500   0.4536   0.4581
  0.4627   0.4722   0.4749   0.4778   0.4856   0.4863   0.4985   0.5010
  0.5045   0.5112   0.5130   0.5163   0.5212   0.5260   0.5338   0.5432
  0.5485   0.5502   0.5539   0.5606   0.5630   0.5659   0.5701   0.5771
  0.5798   0.5807   0.5891   0.5921   0.5947   0.5980   0.6057   0.6084
  0.6139   0.6175   0.6190   0.6233   0.6267   0.6299   0.6347   0.6381
  0.6395   0.6404   0.6481   0.6507   0.6529   0.6575   0.6593   0.6621
  0.6654   0.6692   0.6726   0.6750   0.6784   0.6795   0.6811   0.6859
  0.6906   0.6915   0.6952   0.6976   0.6993   0.7033   0.7064   0.7106
  0.7149   0.7215   0.7228   0.7240   0.7328   0.7358   0.7422   0.7492
  0.7547   0.7607   0.7634   0.7704   0.7732   0.7869   0.7882   0.7939
  0.8027   0.8092   0.8106   0.8190   0.8281   0.8328   0.8465   0.8507
  0.8539   0.8542   0.8624   0.8666   0.8746   0.8807   0.8892   0.8964
  0.9102   0.9164   0.9265   0.9293   0.9352   0.9431   0.9521   0.9567
  0.9721   0.9893   0.9949   0.9955   1.0047   1.0109   1.0164   1.0192
  1.0222   1.0283   1.0289   1.0387   1.0483   1.0593   1.0703   1.0773
  1.0829   1.0912   1.0963   1.1033   1.1053   1.1088   1.1158   1.1254
  1.1278   1.1451   1.1465   1.1525   1.1536   1.1572   1.1660   1.1670
  1.1763   1.1770   1.1860   1.1928   1.2018   1.2033   1.2146   1.2211
[...]
    Octopole Moments (Debye-Ang^2)
       XXX    -156.7618    XXY    -473.2631    XYY     156.3601
       YYY    -204.4076    XXZ     -43.3569    XYZ      94.3994
       YYZ    -149.2721    XZZ      82.2545    YZZ     -58.5464
       ZZZ    -148.9255
    Hexadecapole Moments (Debye-Ang^3)
      XXXX  -17684.5552   XXXY     827.1688   XXYY   -3956.0816
      XYYY    1551.3548   YYYY   -6654.1332   XXXZ    -367.1480
      XXYZ    -377.8466   XYYZ     187.9872   YYYZ    -307.7585
      XXZZ   -3227.1032   XYZZ     425.5243   YYZZ   -1724.2917
      XZZZ    -567.1121   YZZZ      60.8969   ZZZZ   -3199.3976
 -----------------------------------------------------------------
 Calculating analytic gradient of the SCF energy
 Gradient of SCF Energy
            1           2           3           4           5           6
    1  -0.0229206  -0.0334844   0.0361578   0.0533456  -0.0527228   0.0231785
    2  -0.0365596   0.0128748  -0.0266001  -0.0109685  -0.0130704   0.0749588
    3  -0.0171706  -0.0201389   0.0276336  -0.0010016  -0.0312880   0.1015512
            7           8           9          10          11          12
    1   0.1053642  -0.0841636   0.1012929   0.0170327   0.0041509   0.0080890
    2  -0.0564455  -0.0204645   0.0397253   0.0046872   0.0076084   0.0140772
    3  -0.0899287  -0.0480606   0.0768636  -0.0020337   0.0014484  -0.0230715
           13          14          15          16          17          18
    1   0.0254783  -0.0131820   0.0054375  -0.0136788   0.0003723   0.0083993
    2  -0.0150501   0.0217995   0.0088569  -0.0405740   0.0321899  -0.0250721
    3   0.0134248   0.0228368  -0.0049951   0.0161462   0.0374870   0.0136795
           19          20          21          22          23          24
    1  -0.0051986  -0.0010712   0.0108807  -0.0116140  -0.0214242   0.0017759
    2   0.0062376  -0.0533162  -0.0150048   0.0728234   0.0064917  -0.0530926
    3  -0.0155780   0.0185385   0.0329337  -0.0449271  -0.0589678   0.0300365
           25          26          27          28          29          30
    1   0.0651590  -0.1230580   0.0390089  -0.0105617  -0.0125030   0.0020887
    2  -0.0181918  -0.0106516   0.0011188  -0.0075864   0.0070469   0.0209542
    3  -0.0828876  -0.0210564  -0.0350582  -0.0058222   0.0076652   0.0382399
           31          32          33          34          35          36
    1  -0.0092405  -0.0292695   0.0083093   0.0144737  -0.0285014   0.0144288
    2  -0.0410022   0.0158373  -0.0094972   0.0172353   0.0198622  -0.0018651
    3   0.0073464  -0.0223852   0.0060952  -0.0327886   0.0112664  -0.0080611
           37          38          39          40          41          42
    1  -0.0257213  -0.0143914  -0.0227514   0.0440729   0.0028565   0.0029307
    2   0.0030094  -0.0155965   0.0005143   0.0115636   0.0056750   0.0113729
    3  -0.0248930   0.0371273   0.0036732   0.0225710  -0.0372624   0.0191398
           43          44          45          46          47          48
    1   0.0257897  -0.0355447   0.0089061  -0.0146948  -0.0035457   0.0108116
    2  -0.0210038  -0.0095775   0.0294803  -0.0416502  -0.0036600   0.0129881
    3  -0.0251662  -0.0156290   0.0256795  -0.0069873  -0.0003760   0.0295021
           49          50          51          52          53          54
    1   0.0254138  -0.0030742   0.0134658  -0.0104606   0.0215769  -0.0410248
    2  -0.0030699  -0.0037882   0.0270137  -0.0135148   0.0057195   0.0072830
    3  -0.0207676   0.0114189  -0.0049207  -0.0360746   0.0057143   0.0258448
           55          56          57          58          59          60
    1  -0.0115899  -0.0188863   0.0169205   0.0343273  -0.1268886   0.0358835
    2  -0.0200225  -0.0037638   0.0207398  -0.0068756  -0.0352484   0.0237150
    3  -0.0425895  -0.0000803   0.0315593  -0.0242825  -0.0288420   0.1089598
           61          62          63          64          65          66
    1   0.0153990  -0.0056162   0.0158403  -0.0473449  -0.0130720   0.0485828
    2   0.0696861  -0.0148947   0.0032014   0.0123994   0.0121507   0.0067812
    3  -0.0019161   0.0025324  -0.0178418   0.0352623  -0.0152810   0.0459534
 Max gradient component =       1.269E-01
 RMS gradient           =       3.362E-02
 Computing fast CPCM-SWIG gradient
 Updating gradient with PCM contributions...
 -- total gradient after adding PCM contribution --
---------------------------------------------------
  Atom         X              Y              Z     
---------------------------------------------------
   1      -0.000070       0.000053      -0.000029
   2      -0.000024       0.000046      -0.000047
   3       0.000028      -0.000012      -0.000017
   4      -0.000025       0.000020       0.000065
   5       0.000007      -0.000026      -0.000012
   6       0.000004       0.000001       0.000014
   7      -0.000002      -0.000004       0.000011
   8      -0.000006      -0.000046      -0.000002
   9       0.000019       0.000028       0.000020
  10       0.000012      -0.000016      -0.000002
  11       0.000018      -0.000022      -0.000075
  12       0.000004      -0.000008       0.000002
  13      -0.000022       0.000004       0.000053
  14      -0.000002       0.000018      -0.000007
  15       0.000042       0.000038      -0.000019
  16      -0.000022       0.000010       0.000015
  17      -0.000010       0.000001       0.000017
  18      -0.000025       0.000037       0.000024
  19       0.000011      -0.000014      -0.000029
  20      -0.000007       0.000007       0.000013
  21      -0.000001       0.000024       0.000036
  22       0.000034      -0.000019      -0.000023
  23       0.000006      -0.000031      -0.000078
  24      -0.000009       0.000019       0.000038
  25      -0.000042      -0.000010       0.000001
  26       0.000013       0.000001       0.000005
  27       0.000030       0.000013       0.000027
  28       0.000014       0.000134       0.000024
  29      -0.000042      -0.000018      -0.000059
  30      -0.000006       0.000007      -0.000000
  31       0.000026      -0.000012       0.000035
  32       0.000017      -0.000009      -0.000007
  33      -0.000019      -0.000024      -0.000133
  34       0.000014      -0.000012       0.000011
  35      -0.000007       0.000014      -0.000008
  36      -0.000004      -0.000063       0.000058
  37      -0.000004       0.000009      -0.000007
  38       0.000019      -0.000001      -0.000005
  39      -0.000059       0.000068      -0.000013
  40       0.000017      -0.000019       0.000009
  41       0.000021      -0.000019      -0.000001
  42       0.000110       0.000033      -0.000083
  43      -0.000053      -0.000049      -0.000006
  44      -0.000033       0.000005       0.000024
  45      -0.000030       0.000023       0.000111
  46       0.000044      -0.000018      -0.000025
  47       0.000032      -0.000117      -0.000011
  48      -0.000011       0.000022       0.000007
  49      -0.000008       0.000007      -0.000000
  50       0.000049       0.000061       0.000037
  51      -0.000007      -0.000015      -0.000038
  52      -0.000010      -0.000011      -0.000009
  53      -0.000010       0.000048       0.000015
  54       0.000003      -0.000010       0.000008
  55       0.000016      -0.000010      -0.000004
  56      -0.000014       0.000036       0.000003
  57      -0.000018      -0.000005       0.000010
  58       0.000023      -0.000025       0.000023
  59       0.000001       0.000000       0.000008
  60       0.000002      -0.000003       0.000001
  61       0.000043      -0.000062       0.000012
  62      -0.000073       0.000032       0.000020
  63       0.000015      -0.000029      -0.000024
  64      -0.000023       0.000031       0.000001
  65       0.000013      -0.000018       0.000034
  66      -0.000007      -0.000096      -0.000018
---------------------------------------------------
 Number of fixed atoms: 0
 Gradient time:  CPU 19248.28 s  wall 1006.54 s

     Step 41	:
        Energy is -3128.6627996766
                            Maximum         Tolerance       Converged?
         Gradient           5.76249292e-05	3.00000000e-04	true
         Displacement       2.37851839e-03	1.20000000e-03	false
         Energy change      8.69117684e-07	1.00000000e-06	true

	 Optimization Converged in 41 cycles

 *****************************************************
             End of BFGS Algorithm
 *****************************************************
		----------------------------------
		   Verification of Optimization
		----------------------------------

 Eigenvalues of Hessian in Optimization Verification
   0.00212747   0.00377543   0.00648736   0.01081857   0.01459675
   0.02316015   0.03538393   0.04149236   0.07062790   0.08854696
   0.09928643   0.10000369   0.10000688   0.10001273   0.10002296
   0.10002810   0.10003676   0.10004805   0.10005440   0.10008993
   0.10012126   0.10016226   0.10031729   0.10035567   0.10051136
   0.10063716   0.10099334   0.10190351   0.10218203   0.10403887
   0.10581492   0.10638562   0.10833485   0.11086388   0.11295201
   0.11516178   0.11643158   0.11730294   0.11768575   0.12059600
   0.12088700   0.12182675   0.12271541   0.12313258   0.12381923
   0.12559327   0.12598301   0.12664609   0.12738120   0.12760568
   0.12869350   0.13098815   0.13355516   0.13437008   0.13459785
   0.13748772   0.13820839   0.13946963   0.14015024   0.14109957
   0.14199707   0.14310434   0.14354210   0.14631684   0.14742404
   0.14836423   0.15144066   0.15184035   0.15287326   0.15396638
   0.15576687   0.15844529   0.15887985   0.16037137   0.16053863
   0.16202425   0.16882835   0.17435900   0.17478038   0.17615217
   0.17753892   0.17828371   0.17880581   0.18014965   0.18105068
   0.18203696   0.18446846   0.18496442   0.18706786   0.18989100
   0.19266683   0.19369808   0.19550213   0.19556954   0.19646315
   0.19769229   0.19892398   0.19931442   0.19970078   0.19986526
   0.19994972   0.20000945   0.20007626   0.20049128   0.20064108
   0.20073531   0.20205804   0.20297119   0.20508572   0.20694256
   0.21000118   0.21627082   0.22105297   0.22690469   0.23546048
   0.24326928   0.24910713   0.25688708   0.26352206   0.28082039
   0.29970693   0.30933550   0.31860792   0.32371467   0.36753371
   0.41496540   0.43056076   0.44336657   0.45365486   0.46384338
   0.46418205   0.46856377   0.47634878   0.47897566   0.48077595
   0.48657963   0.48944040   0.49155208   0.49408903   0.49511338
   0.49555819   0.49885278   0.49923324   0.49960001   0.49980237
   0.49991249   0.49992925   0.49995082   0.49997003   0.49997308
   0.49998422   0.49999421   0.49999932   0.49999997   0.50000000
   0.50000000   0.50000000   0.50000000   0.50000001   0.50000002
   0.50000016   0.50000019   0.50000048   0.50000251   0.50000368
   0.50000666   0.50001637   0.50003801   0.50004975   0.50006412
   0.50009795   0.50011774   0.50029577   0.50047543   0.50049369
   0.50077711   0.50152330   0.50169982   0.50252617   0.50334655
   0.50646611   0.50897411   0.51089065   0.51516739   0.52013807
   0.53379008   0.54194572   0.55151339   0.57021096   0.57894720
   0.65461292   0.73295872

 Found a minimum
		---------------------------------
		       End of Verification
		---------------------------------

 Final energy is -3128.662799676626

	******************************
	**  OPTIMIZATION CONVERGED  **
	******************************
 Adding empirical dispersion correction 
 ----------------------------------------------------------------
 Doing -D3(BJ) with
 s6  =   1.00000
 s8  =   1.98890
 a1  =   0.39810
 a2  =   4.42110
 -D3 energy without 3body term =     -0.1595827839 hartrees
 ----------------------------------------------------------------
             Standard Nuclear Orientation (Angstroms)
    I     Atom           X                Y                Z
 ----------------------------------------------------------------
    1      N      -2.1260227751    -2.2722361586     1.1477088888
    2      C      -4.0967826258     2.4636873043    -0.1834367135
    3      H      -4.8341794648     3.0392527862    -0.7682107763
    4      N      -2.8972312467     2.2491310107    -0.9745164639
    5      H      -2.0565258889     2.5483146562    -0.4753835898
    6      C      -3.6919935177     3.3085440910     1.0634480935
    7      O      -4.6385612404     3.7008471004     1.7877153690
    8      C      -2.8210677206     1.6387210985    -2.1685514755
    9      O      -3.8036236662     1.2430891072    -2.8100099972
   10      C      -1.9374313390    -3.1047481140     0.1279323177
   11      C      -2.9741385564    -4.1346676091    -0.2213915299
   12      H      -3.2999387574    -4.7001565427     0.6635503097
   13      H      -3.8623072078    -3.6581727734    -0.6654198014
   14      H      -2.5396948006    -4.8251802185    -0.9543278138
   15      C      -1.3907356659     1.4843845280    -2.7109808686
   16      H      -1.0552256439     2.4610560185    -3.0920100925
   17      H      -1.4390899826     0.7728593695    -3.5453976745
   18      C      -0.4468037297     0.9645429148    -1.6437094580
   19      C       0.4084867358     1.8527023110    -1.0128988119
   20      H       0.4438852149     2.8818585343    -1.3702587580
   21      C       1.2930259347     1.4719363622     0.0522416059
   22      O       1.2838083564     0.3054737042     0.5702016640
   23      N       2.1224925961     2.4167857909     0.5648121312
   24      H       2.0792469282     3.2866818370     0.0428955025
   25      C       4.4563785283     1.5603898772     0.0847578891
   26      O       5.6623052878     1.5633005271     0.4455620002
   27      N       2.8365537175    -2.3071599661     0.8592759900
   28      C       2.9728518068    -2.1482287300    -0.4552444247
   29      C       4.3183246075    -2.0954856898    -1.1082745395
   30      H       4.2557056108    -2.6177151357    -2.0736180255
   31      H       4.5465359260    -1.0308104685    -1.2944106735
   32      H       5.1167751935    -2.5385438227    -0.5013997483
   33      C       3.8953979178    -2.2921350039     1.8750032175
   34      H       3.4512802703    -2.7766078376     2.7555588560
   35      H       4.7235974822    -2.9249027025     1.5259693401
   36      C       4.3936995407    -0.8781618937     2.1918384973
   37      H       5.2190849809    -0.9713599460     2.9206427228
   38      H       4.8517598319    -0.4552757229     1.2886699668
   39      C       3.3033480293     0.0590172053     2.7414198753
   40      H       2.3423862974    -0.1981154651     2.2887350387
   41      H       3.2040244005    -0.1203801176     3.8273849770
   42      C       3.5554349417     1.5623502759     2.5389226005
   43      H       2.8532031349     2.1218760358     3.1805457065
   44      H       4.5690595631     1.8085740862     2.8963998135
   45      C       3.4689859524     2.1920522138     1.1250682537
   46      H       3.8470652027     3.2162809083     1.2688817050
   47      C      -4.3521273399    -1.1581548567     1.2926500072
   48      H      -4.7141456663    -1.6041028713     0.3495547192
   49      H      -5.2287311991    -1.0913533026     1.9613299633
   50      C      -3.3457743225    -2.1145816283     1.9393057992
   51      H      -3.7916301505    -3.1068915485     2.0890085961
   52      H      -3.0141030460    -1.7408408890     2.9183656124
   53      C      -3.7817968237     0.2304209190     1.0101555998
   54      H      -2.8652477699     0.1200227824     0.4115053904
   55      H      -3.4720709528     0.7021955593     1.9595283889
   56      C      -4.7526161038     1.1422256759     0.2616433696
   57      H      -5.1350145141     0.6183193523    -0.6291986988
   58      H      -5.6152901253     1.4029940167     0.8953623158
   59      O      -2.4539075763     3.4933037108     1.2436652683
   60      O       3.9796063206     1.1263839992    -0.9965058718
   61      O      -0.5640078801    -0.3003727522    -1.3901905016
   62      Fe      0.3245054946    -1.4013242012     0.0640596502
   63      O      -1.1445810254    -1.3551077587     1.3906813613
   64      O      -0.8557145170    -3.0106973475    -0.5422092002
   65      O       1.5598810306    -2.3048871262     1.3428434798
   66      O       1.9144397064    -2.0006870695    -1.1602503447
 ----------------------------------------------------------------
 Nuclear Repulsion Energy =        5403.67178726 hartrees
 There are      152 alpha and      147 beta electrons

Z-matrix Print:
$molecule
-2 6
Fe
O  1 1.979969
N  2 1.365060 1 113.485544
C  3 1.329882 2 117.072507 1 3.675785 0
O  4 1.275949 3 118.477948 2 0.979408 0
C  3 1.462626 2 115.520450 1 -168.908555 0
H  6 1.098124 3 108.359299 2 -149.643158 0
H  6 1.099202 3 105.490424 2 -34.233393 0
C  4 1.502506 3 120.633134 2 -179.239327 0
H  9 1.096697 4 108.278715 3 -169.361983 0
H  9 1.099566 4 111.706571 3 -48.886329 0
H  9 1.101386 4 110.706853 3 71.438390 0
C  6 1.531556 3 112.753509 2 87.340104 0
H  13 1.104244 6 108.894513 3 65.803337 0
H  13 1.104550 6 107.676240 3 -179.292322 0
C  13 1.527489 6 113.605443 3 -56.340080 0
H  16 1.100287 13 108.689501 6 54.130421 0
H  16 1.104450 13 109.514572 6 -61.341307 0
C  16 1.527792 13 113.321222 6 175.244350 0
H  19 1.101729 16 110.916695 13 67.741947 0
H  19 1.101956 16 109.440879 13 -51.079630 0
C  19 1.540933 16 112.511699 13 -172.131588 0
H  22 1.103173 19 108.423898 16 176.510923 0
N  22 1.452847 19 112.459646 16 54.785664 0
H  24 1.022463 22 111.707117 19 -111.780066 0
C  24 1.343176 22 126.725024 19 62.913797 0
O  26 1.238309 24 124.103929 22 4.976387 0
C  26 1.537498 24 114.330353 22 -176.135148 0
H  28 1.097660 26 106.994418 24 166.533973 0
H  28 1.100744 26 108.458321 24 -76.029134 0
C  28 1.516678 26 111.415712 24 46.404793 0
O  31 1.295384 28 114.588387 26 75.837282 0
C  31 1.385017 28 119.014888 26 -102.220728 0
H  33 1.090010 31 118.437242 28 -5.769786 0
C  33 1.435937 31 123.243626 28 176.955200 0
O  35 1.276324 33 122.610370 31 -5.607501 0
N  35 1.357750 33 118.152771 31 177.675758 0
H  37 1.015375 35 112.093663 33 -6.209200 0
C  37 1.475614 35 126.498820 33 -148.369085 0
H  39 1.101213 37 102.780703 35 171.192260 0
C  39 1.550155 37 117.325639 35 -75.622135 0
H  41 1.102656 39 104.847481 37 -160.656297 0
H  41 1.103575 39 106.788431 37 -47.947423 0
C  41 1.537714 39 120.537499 37 76.090502 0
H  44 1.092926 41 108.639175 39 -52.781849 0
H  44 1.105156 41 107.627798 39 -168.127453 0
C  44 1.539224 41 115.601143 39 70.571049 0
H  47 1.097436 44 110.787109 41 -33.027637 0
H  47 1.105035 44 110.180251 41 83.064743 0
C  47 1.532321 44 113.910299 41 -155.987597 0
H  50 1.098787 47 111.876069 44 -57.564496 0
H  50 1.099152 47 110.600692 44 -177.715181 0
N  50 1.467337 47 112.782982 44 60.524417 0
C  53 1.331090 50 127.480801 47 76.168110 0
O  54 1.280249 53 118.224713 50 -170.108126 0
O  53 1.365187 50 115.442820 47 -94.337670 0
C  54 1.496505 53 121.817008 50 7.921140 0
H  57 1.096413 54 113.513536 53 20.330885 0
H  57 1.099333 54 108.374676 53 142.345342 0
H  57 1.104654 54 107.051953 53 -100.499561 0
C  22 1.559602 19 110.126885 16 -65.109864 0
O  61 1.254773 22 115.788078 19 -64.093607 0
O  61 1.264702 22 116.560855 19 114.397749 0
C  39 1.567223 37 112.597468 35 59.673469 0
O  64 1.258748 39 114.355011 37 168.512921 0
O  64 1.258890 39 118.065294 37 -10.900507 0
$end

 -----------------------------------------------------------------------
                  END OF GEOMETRY OPTIMIZER USING LIBOPT3               
 -----------------------------------------------------------------------
 Total job time:  90315.16s(wall), 1469249.30s(cpu) 
 Wed Jun 14 15:34:38 2023

        *************************************************************
        *                                                           *
        *  Thank you very much for using Q-Chem.  Have a nice day.  *
        *                                                           *
        *************************************************************


