
Running Job 1 of 1 C_FeABstar2_enol_ccL_2sextet_SkS_camb3lyp_augccpVDZ_pcmH2O_tddft100.in
qchem C_FeABstar2_enol_ccL_2sextet_SkS_camb3lyp_augccpVDZ_pcmH2O_tddft100.in_1967135.0 /data/scratch/C_FeABstar2_enol_ccL_2sextet_SkS_camb3lyp_augccpVDZ_pcmH2O_tddft10020230810092931/ 0
/opt/qchem/6.0.1/exe/qcprog.exe_s C_FeABstar2_enol_ccL_2sextet_SkS_camb3lyp_augccpVDZ_pcmH2O_tddft100.in_1967135.0 /data/scratch/C_FeABstar2_enol_ccL_2sextet_SkS_camb3lyp_augccpVDZ_pcmH2O_tddft10020230810092931/
                  Welcome to Q-Chem
     A Quantum Leap Into The Future Of Chemistry


 Q-Chem 6.0, Q-Chem, Inc., Pleasanton, CA (2022)

 E. Epifanovsky,  A. T. B. Gilbert,  Xintian Feng,  Joonho Lee,  Yuezhi Mao,  
 N. Mardirossian,  P. Pokhilko,  A. White,  M. Wormit,  M. P. Coons,  
 A. L. Dempwolff,  Zhengting Gan,  D. Hait,  P. R. Horn,  L. D. Jacobson,  
 I. Kaliman,  J. Kussmann,  A. W. Lange,  Ka Un Lao,  D. S. Levine,  Jie Liu,  
 S. C. McKenzie,  A. F. Morrison,  K. Nanda,  F. Plasser,  D. R. Rehn,  
 M. L. Vidal,  Zhi-Qiang You,  Ying Zhu,  B. Alam,  B. Albrecht,  
 A. Aldossary,  E. Alguire,  J. H. Andersen,  V. Athavale,  D. Barton,  
 K. Begam,  A. Behn,  N. Bellonzi,  Y. A. Bernard,  E. J. Berquist,  
 H. Burton,  A. Carreras,  K. Carter-Fenk,  Romit Chakraborty,  
 Chandrima Chakravarty,  Junhan Chen,  A. D. Chien,  K. D. Closser,  
 V. Cofer-Shabica,  L. Cunha,  S. Dasgupta,  Jia Deng,  M. de Wergifosse,  
 M. Diedenhofen,  Hainam Do,  S. Ehlert,  Po-Tung Fang,  S. Fatehi,  
 Qingguo Feng,  T. Friedhoff,  B. Ganoe,  J. Gayvert,  Qinghui Ge,  
 G. Gidofalvi,  M. Goldey,  J. Gomes,  C. Gonzalez-Espinoza,  S. Gulania,  
 A. Gunina,  J. A. Gyamfi,  M. W. D. Hanson-Heine,  P. H. P. Harbach,  
 A. W. Hauser,  M. F. Herbst,  M. Hernandez Vera,  M. Hodecker,  
 Z. C. Holden,  S. Houck,  Xunkun Huang,  Kerwin Hui,  B. C. Huynh,  
 K. Ikeda,  M. Ivanov,  Hyunjun Ji,  Zuxin Jin,  Hanjie Jiang,  B. Kaduk,  
 S. Kaehler,  R. Kang,  K. Khistyaev,  Jaehoon Kim,  Yongbin Kim,  
 P. Klunzinger,  Z. Koczor-Benda,  Joong Hoon Koh,  D. Kosenkov,  
 Saikiran Kotaru,  L. Koulias,  T. Kowalczyk,  C. M. Krauter,  K. Kue,  
 A. Kunitsa,  T. Kus,  A. Landau,  K. V. Lawler,  D. Lefrancois,  S. Lehtola,  
 Rain Li,  Shaozhi Li,  Yi-Pei Li,  Jiashu Liang,  M. Liebenthal,  
 Hung-Hsuan Lin,  You-Sheng Lin,  Fenglai Liu,  Kuan-Yu Liu,  
 M. Loipersberger,  A. Luenser,  C. Malbon,  A. Manjanath,  P. Manohar,  
 E. Mansoor,  S. F. Manzer,  Shan-Ping Mao,  A. V. Marenich,  T. Markovich,  
 S. Mason,  F. Matz,  S. A. Maurer,  P. F. McLaughlin,  M. F. S. J. Menger,  
 J.-M. Mewes,  S. A. Mewes,  P. Morgante,  Mohammad Mostafanejad,  
 J. W. Mullinax,  K. J. Oosterbaan,  G. Paran,  V. Parravicini,  
 Alexander C. Paul,  Suranjan K. Paul,  F. Pavosevic,  Zheng Pei,  S. Prager,  
 E. I. Proynov,  E. Ramos,  B. Rana,  A. E. Rask,  A. Rettig,  R. M. Richard,  
 F. Rob,  E. Rossomme,  T. Scheele,  M. Scheurer,  M. Schneider,  
 P. E. Schneider,  N. Sergueev,  S. M. Sharada,  Hengyuan Shen,  
 W. Skomorowski,  D. W. Small,  C. J. Stein,  Yingli Su,  Yu-Chuan Su,  
 E. J. Sundstrom,  Zhen Tao,  J. Thirman,  Hung-Yi Tsai,  T. Tsuchimochi,  
 N. M. Tubman,  C. Utku,  S. P. Veccham,  O. Vydrov,  J. Wenzel,  
 Jonathan Wong,  J. Witte,  A. Yamada,  Chou-Hsun Yang,  Kun Yao,  
 S. Yeganeh,  S. R. Yost,  A. Zech,  F. Zeller,  Igor Ying Zhang,  
 Xing Zhang,  Yu Zhang,  D. Zuev,  A. Aspuru-Guzik,  A. T. Bell,  
 N. A. Besley,  K. B. Bravaya,  B. R. Brooks,  D. Casanova,  Jeng-Da Chai,  
 Hsing-Ta Chen,  S. Coriani,  C. J. Cramer,  A. E. DePrince, III,  
 R. A. DiStasio Jr.,  A. Dreuw,  B. D. Dunietz,  T. R. Furlani,  
 W. A. Goddard III,  S. Grimme,  S. Hammes-Schiffer,  T. Head-Gordon,  
 W. J. Hehre,  Chao-Ping Hsu,  T.-C. Jagau,  Yousung Jung,  A. Klamt,  
 Jing Kong,  D. S. Lambrecht,  Xiangyuan Li,  WanZhen Liang,  N. J. Mayhall,  
 C. W. McCurdy,  J. B. Neaton,  T. Neudecker,  C. Ochsenfeld,  
 J. A. Parkhill,  R. Peverati,  V. A. Rassolov,  Haisheng Ren,  Yihan Shao,  
 L. V. Slipchenko,  R. P. Steele,  J. E. Subotnik,  A. J. W. Thom,  
 A. Tkatchenko,  D. G. Truhlar,  T. Van Voorhis,  Fan Wang,  
 T. A. Wesolowski,  K. B. Whaley,  H. L. Woodcock III,  P. M. Zimmerman,  
 S. Faraji,  P. M. W. Gill,  M. Head-Gordon,  J. M. Herbert,  A. I. Krylov

 Contributors to earlier versions of Q-Chem not listed above: 
 R. D. Adamson,  B. Austin,  R. Baer,  J. Baker,  G. J. O. Beran,  
 K. Brandhorst,  S. T. Brown,  E. F. C. Byrd,  Arup K. Chakraborty,  
 G. K. L. Chan,  Chun-Min Chang,  Yunqing Chen,  C.-L. Cheng,  
 Siu Hung Chien,  D. M. Chipman,  D. L. Crittenden,  H. Dachsel,  
 R. J. Doerksen,  A. D. Dutoi,  R. G. Edgar,  J. Fosso-Tande,  
 L. Fusti-Molnar,  D. Ghosh,  A. Ghysels,  A. Golubeva-Zadorozhnaya,  
 J. Gonthier,  M. S. Gordon,  S. R. Gwaltney,  G. Hawkins,  J. E. Herr,  
 A. Heyden,  S. Hirata,  E. G. Hohenstein,  G. Kedziora,  F. J. Keil,  
 C. Kelley,  Jihan Kim,  R. A. King,  R. Z. Khaliullin,  P. P. Korambath,  
 W. Kurlancheek,  A. Laurent,  A. M. Lee,  M. S. Lee,  S. V. Levchenko,  
 Ching Yeh Lin,  D. Liotard,  E. Livshits,  R. C. Lochan,  I. Lotan,  
 L. A. Martinez-Martinez,  P. E. Maslen,  N. Nair,  D. P. O'Neill,  
 D. Neuhauser,  E. Neuscamman,  C. M. Oana,  R. Olivares-Amaya,  R. Olson,  
 T. M. Perrine,  B. Peters,  P. A. Pieniazek,  A. Prociuk,  Y. M. Rhee,  
 J. Ritchie,  M. A. Rohrdanz,  E. Rosta,  N. J. Russ,  H. F. Schaefer III,  
 M. W. Schmidt,  N. E. Schultz,  S. Sharma,  N. Shenvi,  C. D. Sherrill,  
 A. C. Simmonett,  A. Sodt,  T. Stein,  D. Stuck,  K. S. Thanthiriwatte,  
 V. Vanovschi,  L. Vogt,  Tao Wang,  A. Warshel,  M. A. Watson,  
 C. F. Williams,  Q. Wu,  X. Xu,  Jun Yang,  W. Zhang,  Yan Zhao

   Please cite Q-Chem as follows:
  "Software for the frontiers of quantum chemistry:
   An overview of developments in the Q-Chem 5 package"
   J. Chem. Phys. 155, 084801 (2021)
   https://doi.org/10.1063/5.0055522 (open access)

 Q-Chem 6.0.2 for Intel X86 EM64T Linux

 Parts of Q-Chem use Armadillo 9.900.5 (Nocturnal Misbehaviour).
 http://arma.sourceforge.net/

 Q-Chem begins on Thu Aug 10 09:29:32 2023  

 Host: 
0

     Scratch files written to /data/scratch/C_FeABstar2_enol_ccL_2sextet_SkS_camb3lyp_augccpVDZ_pcmH2O_tddft10020230810092931//
 Dec722 |scratch|qcdevops|jenkins|workspace|build_RNUM 8907   
 Processing $rem in /opt/qchem/6.0.1/config/preferences:
 Processing $rem in /home/sgardner/.qchemrc:
 Symmetry turned off for PCM/SM12/SMD calculation

 Checking the input file for inconsistencies... 	...done.

--------------------------------------------------------------
User input:
--------------------------------------------------------------
$molecule
-2 6
N   -2.2862296    1.6148837   -1.7119486
C   -4.3647235   -0.7885545    1.4392739
H   -4.3071111   -0.2628077    2.4079572
N   -3.1886117   -1.6218311    1.2498979
H   -3.4568228   -2.5962568    1.0883671
C   -5.6025503   -1.7394691    1.4889119
O   -6.7026290   -1.1863918    1.7269678
C   -1.9251457   -1.2154244    1.0731415
O   -1.6281688    0.0182027    1.2799830
C   -2.3516824    2.6306476   -0.8555585
C   -3.4007650    3.6924504   -0.9957342
H   -3.8587264    3.7179001   -1.9912430
H   -4.1907428    3.5221695   -0.2469329
H   -2.9351652    4.6645362   -0.7800269
C   -0.9550981   -2.2110609    0.6823623
H   -1.2611112   -3.2570762    0.7126953
C    0.3263590   -1.9003960    0.2829387
C    1.3344848   -3.0158368    0.0546666
H    0.8143585   -3.9672310   -0.1218534
H    1.9342222   -3.1188167    0.9745944
C    2.2391123   -2.7222094   -1.1381184
O    1.8283822   -2.8417110   -2.3023783
N    3.4782280   -2.3181922   -0.8157056
H    3.7952957   -2.2773010    0.1546606
C    5.8234534   -1.6823936   -0.8708973
O    6.8535038   -1.3578497   -1.5086393
N    2.3142847    2.1376795    0.2062547
C    2.0329564    1.9678738    1.4951266
C    3.1033044    2.1131853    2.5393410
H    2.6303300    2.0625111    3.5275056
H    3.8389431    1.2977546    2.4531885
H    3.6418574    3.0670439    2.4424209
C    3.6251022    2.3670322   -0.3958053
H    3.4620259    3.0856988   -1.2136204
H    4.2639514    2.8493135    0.3546578
C    4.2823699    1.0845736   -0.9140599
H    5.2941061    1.3525140   -1.2670563
H    4.4257933    0.3943115   -0.0674874
C    3.5020373    0.3934827   -2.0369822
H    2.5277131    0.0711832   -1.6438088
H    3.2852559    1.1346325   -2.8272104
C    4.2123797   -0.8003664   -2.6816747
H    3.5703469   -1.1797274   -3.4911247
H    5.1687804   -0.4907873   -3.1328017
C    4.5490005   -1.9665702   -1.7318360
H    4.7924620   -2.8404049   -2.3647582
C   -4.6294351    0.7635424   -2.1839948
H   -5.2124012    1.6245571   -1.8161612
H   -5.1804162    0.3800388   -3.0590293
C   -3.2781360    1.2449728   -2.7307203
H   -3.4239139    2.0966941   -3.4123590
H   -2.7876642    0.4451540   -3.2991611
C   -4.5628588   -0.3152657   -1.0872304
H   -3.6804354   -0.9559469   -1.2497434
H   -5.4422018   -0.9739039   -1.1811090
C   -4.5359233    0.2669896    0.3315421
H   -3.7323393    1.0065878    0.4257450
H   -5.4872914    0.7853312    0.5308087
O   -5.3834603   -2.9644847    1.2674419
O    5.7040927   -1.8091802    0.3825288
O    0.7901232   -0.6996136    0.0990552
Fe   -0.2388176    1.0133859    0.1389301
O   -1.2846750    0.7046454   -1.5174267
O   -1.5045003    2.6870371    0.0954761
O    1.2847749    1.9908590   -0.6732766
O    0.8346762    1.6647038    1.8206020
$end

$rem
BASIS  =  gen
CIS_N_ROOTS  =  100
EXCHANGE  =  CAM-B3LYP
GUI  =  2
JOB_TYPE  =  SP
NTO_PAIRS  =  2
SCF_CONVERGENCE  =  8
SOLVENT_METHOD  =  PCM
UNRESTRICTED  =  1
BASIS GEN
PURECART 11
$end

$pcm
THEORY  CPCM
$end

$solvent
DIELECTRIC  78.39
$end

$van_der_waals
26   2.44
$end

!----------------------------------------------------------------------
! Basis Set Exchange
! Basis set: aug-cc-pVDZ
!----------------------------------------------------------------------

$basis
H     0
S   4   1.00
1.301000D+01           1.968500D-02
1.962000D+00           1.379770D-01
4.446000D-01           4.781480D-01
1.220000D-01           5.012400D-01
S   1   1.00
1.220000D-01           1.000000D+00
S   1   1.00
0.0297400              1.0000000
P   1   1.00
7.270000D-01           1.0000000
P   1   1.00
0.1410000              1.0000000
****
C     0
S   9   1.00
6.665000D+03           6.920000D-04
1.000000D+03           5.329000D-03
2.280000D+02           2.707700D-02
6.471000D+01           1.017180D-01
2.106000D+01           2.747400D-01
7.495000D+00           4.485640D-01
2.797000D+00           2.850740D-01
5.215000D-01           1.520400D-02
1.596000D-01          -3.191000D-03
S   9   1.00
6.665000D+03          -1.460000D-04
1.000000D+03          -1.154000D-03
2.280000D+02          -5.725000D-03
6.471000D+01          -2.331200D-02
2.106000D+01          -6.395500D-02
7.495000D+00          -1.499810D-01
2.797000D+00          -1.272620D-01
5.215000D-01           5.445290D-01
1.596000D-01           5.804960D-01
S   1   1.00
1.596000D-01           1.000000D+00
S   1   1.00
0.0469000              1.0000000
P   4   1.00
9.439000D+00           3.810900D-02
2.002000D+00           2.094800D-01
5.456000D-01           5.085570D-01
1.517000D-01           4.688420D-01
P   1   1.00
1.517000D-01           1.000000D+00
P   1   1.00
0.0404100              1.0000000
D   1   1.00
5.500000D-01           1.0000000
D   1   1.00
0.1510000              1.0000000
****
N     0
S   9   1.00
9.046000D+03           7.000000D-04
1.357000D+03           5.389000D-03
3.093000D+02           2.740600D-02
8.773000D+01           1.032070D-01
2.856000D+01           2.787230D-01
1.021000D+01           4.485400D-01
3.838000D+00           2.782380D-01
7.466000D-01           1.544000D-02
2.248000D-01          -2.864000D-03
S   9   1.00
9.046000D+03          -1.530000D-04
1.357000D+03          -1.208000D-03
3.093000D+02          -5.992000D-03
8.773000D+01          -2.454400D-02
2.856000D+01          -6.745900D-02
1.021000D+01          -1.580780D-01
3.838000D+00          -1.218310D-01
7.466000D-01           5.490030D-01
2.248000D-01           5.788150D-01
S   1   1.00
2.248000D-01           1.000000D+00
S   1   1.00
0.0612400              1.0000000
P   4   1.00
1.355000D+01           3.991900D-02
2.917000D+00           2.171690D-01
7.973000D-01           5.103190D-01
2.185000D-01           4.622140D-01
P   1   1.00
2.185000D-01           1.000000D+00
P   1   1.00
0.0561100              1.0000000
D   1   1.00
8.170000D-01           1.0000000
D   1   1.00
0.2300000              1.0000000
****
O     0
S   9   1.00
1.172000D+04           7.100000D-04
1.759000D+03           5.470000D-03
4.008000D+02           2.783700D-02
1.137000D+02           1.048000D-01
3.703000D+01           2.830620D-01
1.327000D+01           4.487190D-01
5.025000D+00           2.709520D-01
1.013000D+00           1.545800D-02
3.023000D-01          -2.585000D-03
S   9   1.00
1.172000D+04          -1.600000D-04
1.759000D+03          -1.263000D-03
4.008000D+02          -6.267000D-03
1.137000D+02          -2.571600D-02
3.703000D+01          -7.092400D-02
1.327000D+01          -1.654110D-01
5.025000D+00          -1.169550D-01
1.013000D+00           5.573680D-01
3.023000D-01           5.727590D-01
S   1   1.00
3.023000D-01           1.000000D+00
S   1   1.00
0.0789600              1.0000000
P   4   1.00
1.770000D+01           4.301800D-02
3.854000D+00           2.289130D-01
1.046000D+00           5.087280D-01
2.753000D-01           4.605310D-01
P   1   1.00
2.753000D-01           1.000000D+00
P   1   1.00
0.0685600              1.0000000
D   1   1.00
1.185000D+00           1.0000000
D   1   1.00
0.3320000              1.0000000
****
Fe     0
S   20   1.00
4.316265D+06           8.048803D-06
6.463424D+05           6.258306D-05
1.470897D+05           3.290239D-04
4.166152D+04           1.387355D-03
1.359077D+04           5.023256D-03
4.905750D+03           1.610140D-02
1.912746D+03           4.590034D-02
7.926043D+02           1.136154D-01
3.448065D+02           2.283869D-01
1.558999D+02           3.221159D-01
7.223091D+01           2.383661D-01
3.272506D+01           7.404667D-02
1.566762D+01           9.214197D-02
7.503483D+00           9.339790D-02
3.312223D+00           1.573965D-02
1.558471D+00          -4.186682D-04
6.839140D-01           5.376318D-05
1.467570D-01          -3.816654D-05
7.058300D-02           4.319603D-05
3.144900D-02          -3.401019D-06
S   20   1.00
4.316265D+06          -4.155954D-06
6.463424D+05          -3.231401D-05
1.470897D+05          -1.699525D-04
4.166152D+04          -7.171369D-04
1.359077D+04          -2.603625D-03
4.905750D+03          -8.399109D-03
1.912746D+03          -2.434109D-02
7.926043D+02          -6.251948D-02
3.448065D+02          -1.365929D-01
1.558999D+02          -2.312707D-01
7.223091D+01          -2.383734D-01
3.272506D+01           3.123837D-02
1.566762D+01           5.086818D-01
7.503483D+00           4.987695D-01
3.312223D+00           9.033552D-02
1.558471D+00          -6.005337D-03
6.839140D-01           2.312454D-04
1.467570D-01          -5.643680D-04
7.058300D-02           4.992260D-04
3.144900D-02          -1.015293D-04
S   20   1.00
4.316265D+06           9.532178D-07
6.463424D+05           7.414605D-06
1.470897D+05           3.898393D-05
4.166152D+04           1.647152D-04
1.359077D+04           5.985980D-04
4.905750D+03           1.942390D-03
1.912746D+03           5.687237D-03
7.926043D+02           1.501329D-02
3.448065D+02           3.452455D-02
1.558999D+02           6.495820D-02
7.223091D+01           7.716194D-02
3.272506D+01          -1.873411D-02
1.566762D+01          -3.009185D-01
7.503483D+00          -4.554661D-01
3.312223D+00           1.286463D-01
1.558471D+00           7.183316D-01
6.839140D-01           4.051743D-01
1.467570D-01           2.168227D-02
7.058300D-02          -8.343566D-03
3.144900D-02           3.658979D-03
S   20   1.00
4.316265D+06          -2.063008D-07
6.463424D+05          -1.604169D-06
1.470897D+05          -8.438437D-06
4.166152D+04          -3.563151D-05
1.359077D+04          -1.295998D-04
4.905750D+03          -4.201534D-04
1.912746D+03          -1.231954D-03
7.926043D+02          -3.248922D-03
3.448065D+02          -7.493717D-03
1.558999D+02          -1.410102D-02
7.223091D+01          -1.691600D-02
3.272506D+01           4.218996D-03
1.566762D+01           6.833810D-02
7.503483D+00           1.098201D-01
3.312223D+00          -4.009005D-02
1.558471D+00          -2.174739D-01
6.839140D-01          -2.465135D-01
1.467570D-01           2.731435D-01
7.058300D-02           5.748321D-01
3.144900D-02           3.012713D-01
S   20   1.00
4.316265D+06          -4.009367D-07
6.463424D+05          -3.189255D-06
1.470897D+05          -1.623079D-05
4.166152D+04          -7.157920D-05
1.359077D+04          -2.463958D-04
4.905750D+03          -8.544907D-04
1.912746D+03          -2.307593D-03
7.926043D+02          -6.728292D-03
3.448065D+02          -1.366165D-02
1.558999D+02          -3.062240D-02
7.223091D+01          -2.631137D-02
3.272506D+01          -9.760183D-03
1.566762D+01           1.801906D-01
7.503483D+00           1.529634D-01
3.312223D+00           5.505413D-02
1.558471D+00          -9.551364D-01
6.839140D-01           2.586813D-01
1.467570D-01           1.834049D+00
7.058300D-02          -9.333240D-01
3.144900D-02          -6.981605D-01
S   1   1.00
3.144900D-02           1.000000D+00
S   1   1.00
1.401000D-02           1.000000D+00
P   16   1.00
1.774569D+04           4.100000D-05
4.200721D+03           3.690000D-04
1.364429D+03           2.129000D-03
5.220806D+02           9.369000D-03
2.214595D+02           3.309700D-02
1.009096D+02           9.443100D-02
4.840115D+01           2.080770D-01
2.398536D+01           3.323330D-01
1.218250D+01           3.329870D-01
6.242298D+00           1.568430D-01
3.110944D+00           2.154900D-02
1.509958D+00          -2.095000D-03
7.108450D-01          -1.739000D-03
2.731900D-01          -3.000000D-04
1.042330D-01           2.900000D-05
3.829100D-02          -1.100000D-05
P   16   1.00
1.774569D+04          -1.500000D-05
4.200721D+03          -1.300000D-04
1.364429D+03          -7.510000D-04
5.220806D+02          -3.329000D-03
2.214595D+02          -1.191200D-02
1.009096D+02          -3.493300D-02
4.840115D+01          -7.998900D-02
2.398536D+01          -1.346360D-01
1.218250D+01          -1.385980D-01
6.242298D+00           3.027800D-02
3.110944D+00           3.332160D-01
1.509958D+00           4.561530D-01
7.108450D-01           2.850510D-01
2.731900D-01           4.614400D-02
1.042330D-01          -3.249000D-03
3.829100D-02           1.357000D-03
P   16   1.00
1.774569D+04           5.000000D-06
4.200721D+03           4.200000D-05
1.364429D+03           2.410000D-04
5.220806D+02           1.085000D-03
2.214595D+02           3.831000D-03
1.009096D+02           1.142300D-02
4.840115D+01           2.579200D-02
2.398536D+01           4.481800D-02
1.218250D+01           4.459800D-02
6.242298D+00          -1.117700D-02
3.110944D+00          -1.381340D-01
1.509958D+00          -1.882850D-01
7.108450D-01          -1.073990D-01
2.731900D-01           4.448630D-01
1.042330D-01           6.402390D-01
3.829100D-02           6.445700D-02
P   16   1.00
1.774569D+04           3.000000D-06
4.200721D+03           2.900000D-05
1.364429D+03           1.650000D-04
5.220806D+02           7.340000D-04
2.214595D+02           2.626000D-03
1.009096D+02           7.725000D-03
4.840115D+01           1.773300D-02
2.398536D+01           3.005500D-02
1.218250D+01           3.109400D-02
6.242298D+00          -1.004800D-02
3.110944D+00          -8.830600D-02
1.509958D+00          -1.298240D-01
7.108450D-01          -7.693700D-02
2.731900D-01           2.126610D-01
1.042330D-01           5.730610D-01
3.829100D-02           3.696510D-01
P   1   1.00
3.829100D-02           1.000000D+00
P   1   1.00
1.407000D-02           1.000000D+00
D   8   1.00
1.133440D+02           3.530000D-03
3.364140D+01           2.578400D-02
1.233100D+01           9.911900D-02
4.994780D+00           2.390730D-01
2.072800D+00           3.571990D-01
8.307530D-01           3.621880D-01
3.091780D-01           2.364610D-01
1.001300D-01           6.011800D-02
D   8   1.00
1.133440D+02          -3.890000D-03
3.364140D+01          -2.844200D-02
1.233100D+01          -1.124290D-01
4.994780D+00          -2.742570D-01
2.072800D+00          -3.155460D-01
8.307530D-01           5.710900D-02
3.091780D-01           5.636040D-01
1.001300D-01           3.846370D-01
D   1   1.00
1.001300D-01           1.000000D+00
D   1   1.00
3.243000D-02           1.000000D+00
F   2   1.00
3.224300D+00           4.222490D-01
7.758000D-01           7.714680D-01
F   1   1.00
2.749000D-01           1.000000D+00
****
$end


--------------------------------------------------------------
 ----------------------------------------------------------------
             Standard Nuclear Orientation (Angstroms)
    I     Atom           X                Y                Z
 ----------------------------------------------------------------
    1      N      -2.2862296000     1.6148837000    -1.7119486000
    2      C      -4.3647235000    -0.7885545000     1.4392739000
    3      H      -4.3071111000    -0.2628077000     2.4079572000
    4      N      -3.1886117000    -1.6218311000     1.2498979000
    5      H      -3.4568228000    -2.5962568000     1.0883671000
    6      C      -5.6025503000    -1.7394691000     1.4889119000
    7      O      -6.7026290000    -1.1863918000     1.7269678000
    8      C      -1.9251457000    -1.2154244000     1.0731415000
    9      O      -1.6281688000     0.0182027000     1.2799830000
   10      C      -2.3516824000     2.6306476000    -0.8555585000
   11      C      -3.4007650000     3.6924504000    -0.9957342000
   12      H      -3.8587264000     3.7179001000    -1.9912430000
   13      H      -4.1907428000     3.5221695000    -0.2469329000
   14      H      -2.9351652000     4.6645362000    -0.7800269000
   15      C      -0.9550981000    -2.2110609000     0.6823623000
   16      H      -1.2611112000    -3.2570762000     0.7126953000
   17      C       0.3263590000    -1.9003960000     0.2829387000
   18      C       1.3344848000    -3.0158368000     0.0546666000
   19      H       0.8143585000    -3.9672310000    -0.1218534000
   20      H       1.9342222000    -3.1188167000     0.9745944000
   21      C       2.2391123000    -2.7222094000    -1.1381184000
   22      O       1.8283822000    -2.8417110000    -2.3023783000
   23      N       3.4782280000    -2.3181922000    -0.8157056000
   24      H       3.7952957000    -2.2773010000     0.1546606000
   25      C       5.8234534000    -1.6823936000    -0.8708973000
   26      O       6.8535038000    -1.3578497000    -1.5086393000
   27      N       2.3142847000     2.1376795000     0.2062547000
   28      C       2.0329564000     1.9678738000     1.4951266000
   29      C       3.1033044000     2.1131853000     2.5393410000
   30      H       2.6303300000     2.0625111000     3.5275056000
   31      H       3.8389431000     1.2977546000     2.4531885000
   32      H       3.6418574000     3.0670439000     2.4424209000
   33      C       3.6251022000     2.3670322000    -0.3958053000
   34      H       3.4620259000     3.0856988000    -1.2136204000
   35      H       4.2639514000     2.8493135000     0.3546578000
   36      C       4.2823699000     1.0845736000    -0.9140599000
   37      H       5.2941061000     1.3525140000    -1.2670563000
   38      H       4.4257933000     0.3943115000    -0.0674874000
   39      C       3.5020373000     0.3934827000    -2.0369822000
   40      H       2.5277131000     0.0711832000    -1.6438088000
   41      H       3.2852559000     1.1346325000    -2.8272104000
   42      C       4.2123797000    -0.8003664000    -2.6816747000
   43      H       3.5703469000    -1.1797274000    -3.4911247000
   44      H       5.1687804000    -0.4907873000    -3.1328017000
   45      C       4.5490005000    -1.9665702000    -1.7318360000
   46      H       4.7924620000    -2.8404049000    -2.3647582000
   47      C      -4.6294351000     0.7635424000    -2.1839948000
   48      H      -5.2124012000     1.6245571000    -1.8161612000
   49      H      -5.1804162000     0.3800388000    -3.0590293000
   50      C      -3.2781360000     1.2449728000    -2.7307203000
   51      H      -3.4239139000     2.0966941000    -3.4123590000
   52      H      -2.7876642000     0.4451540000    -3.2991611000
   53      C      -4.5628588000    -0.3152657000    -1.0872304000
   54      H      -3.6804354000    -0.9559469000    -1.2497434000
   55      H      -5.4422018000    -0.9739039000    -1.1811090000
   56      C      -4.5359233000     0.2669896000     0.3315421000
   57      H      -3.7323393000     1.0065878000     0.4257450000
   58      H      -5.4872914000     0.7853312000     0.5308087000
   59      O      -5.3834603000    -2.9644847000     1.2674419000
   60      O       5.7040927000    -1.8091802000     0.3825288000
   61      O       0.7901232000    -0.6996136000     0.0990552000
   62      Fe     -0.2388176000     1.0133859000     0.1389301000
   63      O      -1.2846750000     0.7046454000    -1.5174267000
   64      O      -1.5045003000     2.6870371000     0.0954761000
   65      O       1.2847749000     1.9908590000    -0.6732766000
   66      O       0.8346762000     1.6647038000     1.8206020000
 ----------------------------------------------------------------
 Nuclear Repulsion Energy =        5303.55205635 hartrees
 There are      152 alpha and      147 beta electrons
 Requested basis set is non-standard
 There are 488 shells and 1148 basis functions

 Total QAlloc Memory Limit   8000 MB
 Mega-Array Size       188 MB
 MEM_STATIC part       192 MB

 Using C-PCM dielectric factor f(eps) = (eps-1)/eps = 0.987243
No default van der Waals radius is available for Z = 26
	Found R = 2.4400 A in the $van_der_waals section
 Discretize the solute cavity surface with Lebedev spheres
	Using 110 Lebedev grid points for each H atom
	Using 194 Lebedev grid points for other atoms
	Atomic van der Waals radii (Bondi set) will be scaled by 1.20
 Using smooth SwiG surface discretization
 Remove points where switching function is < 1.0e-08
 Keep 3904 surface tesserae and discard 6464 interior tesserae
 Molecular Surface Area = 499.726 Angst**2

 A cutoff of  1.0D-12 yielded 103678 shell pairs
 There are    546662 function pairs (    622954 Cartesian)
 Smallest overlap matrix eigenvalue = 1.06E-06

 Scale SEOQF with 1.000000e-02/1.000000e-01/1.000000e-01

 Standard Electronic Orientation quadrupole field applied
 Nucleus-field energy     =     0.0000000238 hartrees
 ================ Generating on-the-fly SAD Guess ================
 Attempting to make child job directory: /data/scratch/C_FeABstar2_enol_ccL_2sextet_SkS_camb3lyp_augccpVDZ_pcmH2O_tddft10020230810092931//Frg1/
 Attempting to make child job directory: /data/scratch/C_FeABstar2_enol_ccL_2sextet_SkS_camb3lyp_augccpVDZ_pcmH2O_tddft10020230810092931//Frg2/
 Attempting to make child job directory: /data/scratch/C_FeABstar2_enol_ccL_2sextet_SkS_camb3lyp_augccpVDZ_pcmH2O_tddft10020230810092931//Frg3/
 Attempting to make child job directory: /data/scratch/C_FeABstar2_enol_ccL_2sextet_SkS_camb3lyp_augccpVDZ_pcmH2O_tddft10020230810092931//Frg4/
 Attempting to make child job directory: /data/scratch/C_FeABstar2_enol_ccL_2sextet_SkS_camb3lyp_augccpVDZ_pcmH2O_tddft10020230810092931//Frg5/
 Creating input file /data/scratch/C_FeABstar2_enol_ccL_2sextet_SkS_camb3lyp_augccpVDZ_pcmH2O_tddft10020230810092931/Frg1.input
 using default PutDataFrgm: nothing
 calling putenv with: QCSCRATCH=/data/scratch/C_FeABstar2_enol_ccL_2sextet_SkS_camb3lyp_augccpVDZ_pcmH2O_tddft10020230810092931/ 
 Spawning Job For Fragment 0
 Done Job For Fragment 0
 calling putenv with: QCSCRATCH=/data/scratch 
 calling putenv with: QCTHREADS=20 
 Creating input file /data/scratch/C_FeABstar2_enol_ccL_2sextet_SkS_camb3lyp_augccpVDZ_pcmH2O_tddft10020230810092931/Frg2.input
 using default PutDataFrgm: nothing
 calling putenv with: QCSCRATCH=/data/scratch/C_FeABstar2_enol_ccL_2sextet_SkS_camb3lyp_augccpVDZ_pcmH2O_tddft10020230810092931/ 
 Spawning Job For Fragment 1
 Done Job For Fragment 1
 calling putenv with: QCSCRATCH=/data/scratch 
 calling putenv with: QCTHREADS=20 
 Creating input file /data/scratch/C_FeABstar2_enol_ccL_2sextet_SkS_camb3lyp_augccpVDZ_pcmH2O_tddft10020230810092931/Frg3.input
 using default PutDataFrgm: nothing
 calling putenv with: QCSCRATCH=/data/scratch/C_FeABstar2_enol_ccL_2sextet_SkS_camb3lyp_augccpVDZ_pcmH2O_tddft10020230810092931/ 
 Spawning Job For Fragment 2
 Done Job For Fragment 2
 calling putenv with: QCSCRATCH=/data/scratch 
 calling putenv with: QCTHREADS=20 
 Creating input file /data/scratch/C_FeABstar2_enol_ccL_2sextet_SkS_camb3lyp_augccpVDZ_pcmH2O_tddft10020230810092931/Frg4.input
 using default PutDataFrgm: nothing
 calling putenv with: QCSCRATCH=/data/scratch/C_FeABstar2_enol_ccL_2sextet_SkS_camb3lyp_augccpVDZ_pcmH2O_tddft10020230810092931/ 
 Spawning Job For Fragment 3
 Done Job For Fragment 3
 calling putenv with: QCSCRATCH=/data/scratch 
 calling putenv with: QCTHREADS=20 
 Creating input file /data/scratch/C_FeABstar2_enol_ccL_2sextet_SkS_camb3lyp_augccpVDZ_pcmH2O_tddft10020230810092931/Frg5.input
 using default PutDataFrgm: nothing
 calling putenv with: QCSCRATCH=/data/scratch/C_FeABstar2_enol_ccL_2sextet_SkS_camb3lyp_augccpVDZ_pcmH2O_tddft10020230810092931/ 
 Spawning Job For Fragment 4
 Done Job For Fragment 4
 calling putenv with: QCSCRATCH=/data/scratch 
 calling putenv with: QCTHREADS=20 
 Time for running child jobs:  CPU 0.02 s  wall 96.51 s
 ============= Method Specific SAD Guess Constructed =============
 Guess from on-the-fly superposition of atomic densities
 Warning: Energy on first SCF cycle will be non-variational

 -----------------------------------------------------------------------
  General SCF calculation program by
  Eric Jon Sundstrom, Paul Horn, Yuezhi Mao, Dmitri Zuev, Alec White,
  David Stuck, Shaama M.S., Shane Yost, Joonho Lee, David Small,
  Daniel Levine, Susi Lehtola, Hugh Burton, Evgeny Epifanovsky,
  Bang C. Huynh
 -----------------------------------------------------------------------
 Exchange:     0.1900 Hartree-Fock + 0.3500 B88 + 0.4600 muB88 + LR-HF
 Correlation:  0.1900 VWN5 + 0.8100 LYP
 Using SG-1 standard quadrature grid
 using 20 threads for integral computing
 -------------------------------------------------------
 OpenMP Integral computing Module                
 Release: version 1.0, May 2013, Q-Chem Inc. Pittsburgh 
 -------------------------------------------------------
 C-PCM solvent model [f = (eps-1)/eps], solve by matrix inversion
 A unrestricted SCF calculation will be
 performed using DIIS
 SCF converges when DIIS error is below 1.0e-08
 ---------------------------------------
  Cycle       Energy         DIIS error
 ---------------------------------------
    1   -3147.6092132926      1.05e-02  
    2   -3126.8242105039      1.33e-03  
    3   -3126.3672743458      1.83e-03  
    4   -3127.8497019829      3.97e-04  
    5   -3127.9001518833      2.21e-04  
    6   -3127.9200694973      1.04e-04  
    7   -3127.9260802128      2.81e-05  
    8   -3127.9269749859      1.76e-05  
    9   -3127.9273426539      7.32e-06  
   10   -3127.9274650005      3.70e-06  
   11   -3127.9275085657      2.13e-06  
   12   -3127.9275288656      1.18e-06  
   13   -3127.9275340304      6.18e-07  
   14   -3127.9275352446      3.28e-07  
   15   -3127.9275354440      1.43e-07  
   16   -3127.9275354928      6.39e-08  
   17   -3127.9275355035      4.04e-08  
   18   -3127.9275355067      2.19e-08  
   19   -3127.9275355083      1.10e-08  
   20   -3127.9275355078      6.24e-09  Convergence criterion met
 ---------------------------------------
 SCF time:   CPU 309054.16s  wall 17676.00s 
<S^2> =          8.758107862

************** Final PCM Free Energy Summary **************
 G_electrostatic  =      -0.28109841 hartree =    -176.39191356 kcal/mol
 G_cavitation     =       0.00000000 hartree =       0.00000000 kcal/mol
 G_dispersion     =       0.00000000 hartree =       0.00000000 kcal/mol
 G_repulsion      =       0.00000000 hartree =       0.00000000 kcal/mol
 --------------------------------------------------
 Non-electrostatic Free Energy =       0.00000000 hartree =       0.00000000 kcal/mol
 Total                         =      -0.28109841 hartree =    -176.39191356 kcal/mol
 --------------------------------------------------
 SCF Energy (H0 + V/2)                       =   -3127.92753551 
 Solute Internal Energy (H0)                 =   -3127.64643710 
 Total Free Energy (H0 + V/2 + non-elec)     =   -3127.92753551 hartree
                                             = -1962804.15313284 kcal/mol
***********************************************************

 SCF   energy in the final basis set =    -3127.9275355078
 Total energy in the final basis set =    -3127.9275355078
 

 CIS/TDDFT memory preview:
 --------------------------
	NOV = NOa*NVa + NOb*NVb = 298539
	NRoots = 100, max iter = 30, max vectors = 3000
	Size of each subspace vector: 2.28 Mb
	Davidson algorithm may add up to 2 x NOV x NRoots (= 455.5 Mb) per iteration
	Max memory = 13666.0 Mb (worst case scenario)
	Currently available memory = 8000.0 Mb

	In case of problems:
	(a) increase memory (MEM_TOTAL = 13667 can hold 3000 subspace vectors), or
	(b) request fewer states (CIS_N_ROOTS = 58 will fit in current MEM_TOTAL), or
	(c) reduce MAX_CIS_SUBSPACE (= 1756 will fit in current MEM_TOTAL).
	Reducing MAX_CIS_SUBSPACE may hamper convergence.

 Direct TDDFT/TDA calculation will be performed
 Exchange:     0.1900 Hartree-Fock + 0.3500 B88 + 0.4600 muB88 + LR-HF
 Correlation:  0.1900 VWN5 + 0.8100 LYP
 Using SG-1 standard quadrature grid
 Adding PCM contribution to the XC response (LR-PCM)
 CIS energy converged when residual is below 10e- 6
 ---------------------------------------------------
 Iter    Rts Conv    Rts Left    Ttl Dev     Max Dev
 ---------------------------------------------------
   1         0         100      0.005894    0.000299
   2         0         100      0.005267    0.000162
   3         0         100      0.005064    0.000139
   4         0         100      0.003530    0.000087
   5        12          88      0.002063    0.000082
   6        22          78      0.001214    0.000058
   7        33          67      0.000672    0.000064
   8        55          45      0.000420    0.000038
   9        62          38      0.000199    0.000020
  10        84          16      0.000075    0.000008
  11        94           6      0.000032    0.000003
  12       100           0      0.000021    0.000001    Roots Converged
 ---------------------------------------------------
 
 ---------------------------------------------------
         TDDFT/TDA Excitation Energies              
 ---------------------------------------------------

 Excited state   1: excitation energy (eV) =    2.2996
 Total energy for state  1:                 -3127.84302590 au
    <S**2>     :  8.7950
    Trans. Mom.:  0.0253 X   0.0346 Y   0.0132 Z
    Strength   :     0.0001134664
    D(  145) --> S(    1) amplitude = -0.3035 beta
    D(  146) --> S(    1) amplitude =  0.9068 beta

 Excited state   2: excitation energy (eV) =    2.3897
 Total energy for state  2:                 -3127.83971399 au
    <S**2>     :  8.7985
    Trans. Mom.: -0.2618 X  -0.0185 Y  -0.1086 Z
    Strength   :     0.0047244967
    D(  145) --> S(    1) amplitude =  0.8813 beta
    D(  146) --> S(    1) amplitude =  0.3335 beta
    D(  146) --> S(    2) amplitude =  0.2122 beta

 Excited state   3: excitation energy (eV) =    2.5069
 Total energy for state  3:                 -3127.83540706 au
    <S**2>     :  8.7898
    Trans. Mom.:  0.2267 X   0.0090 Y   0.1477 Z
    Strength   :     0.0045022763
    D(  145) --> S(    3) amplitude = -0.3666 beta
    D(  146) --> S(    3) amplitude =  0.9001 beta

 Excited state   4: excitation energy (eV) =    2.5412
 Total energy for state  4:                 -3127.83414995 au
    <S**2>     :  8.7861
    Trans. Mom.: -0.9068 X  -0.2126 Y  -0.2665 Z
    Strength   :     0.0584236676
    D(  145) --> S(    1) amplitude = -0.2075 beta
    D(  145) --> S(    2) amplitude = -0.4372 beta
    D(  145) --> S(    3) amplitude = -0.4914 beta
    D(  146) --> S(    2) amplitude =  0.6305 beta
    D(  146) --> S(    3) amplitude = -0.2208 beta

 Excited state   5: excitation energy (eV) =    2.5869
 Total energy for state  5:                 -3127.83246735 au
    <S**2>     :  8.8025
    Trans. Mom.:  0.0963 X  -0.0961 Y   0.0539 Z
    Strength   :     0.0013579040
    D(  145) --> S(    2) amplitude =  0.8087 beta
    D(  146) --> S(    2) amplitude =  0.5391 beta

 Excited state   6: excitation energy (eV) =    2.7762
 Total energy for state  6:                 -3127.82551185 au
    <S**2>     :  8.8532
    Trans. Mom.: -0.1391 X  -0.6406 Y   0.3462 Z
    Strength   :     0.0373787680
    D(  145) --> S(    2) amplitude = -0.2321 beta
    D(  145) --> S(    3) amplitude =  0.6364 beta
    D(  146) --> S(    2) amplitude =  0.3082 beta
    D(  146) --> S(    3) amplitude =  0.2480 beta
    D(  147) --> S(    1) amplitude =  0.4933 beta
    D(  147) --> S(    3) amplitude =  0.1646 beta

 Excited state   7: excitation energy (eV) =    2.9883
 Total energy for state  7:                 -3127.81771854 au
    <S**2>     :  9.1007
    Trans. Mom.: -0.2238 X  -0.0038 Y  -0.0138 Z
    Strength   :     0.0036801513
    S(    5) --> V(    5) amplitude =  0.1712 alpha
    D(  145) --> S(    3) amplitude = -0.3351 beta
    D(  146) --> S(    2) amplitude = -0.2464 beta
    D(  147) --> S(    1) amplitude =  0.7457 beta
    D(  147) --> S(    2) amplitude =  0.1572 beta
    D(  147) --> S(    3) amplitude = -0.1722 beta

 Excited state   8: excitation energy (eV) =    3.1437
 Total energy for state  8:                 -3127.81200839 au
    <S**2>     :  8.7835
    Trans. Mom.: -0.0302 X   0.0578 Y   0.0091 Z
    Strength   :     0.0003341737
    D(  135) --> S(    2) amplitude =  0.1671 beta
    D(  147) --> S(    1) amplitude = -0.1711 beta
    D(  147) --> S(    2) amplitude =  0.9350 beta

 Excited state   9: excitation energy (eV) =    3.2549
 Total energy for state  9:                 -3127.80792139 au
    <S**2>     :  8.7985
    Trans. Mom.: -0.0341 X  -0.2118 Y   0.0050 Z
    Strength   :     0.0036706838
    D(  135) --> S(    3) amplitude =  0.1536 beta
    D(  147) --> S(    3) amplitude =  0.9219 beta

 Excited state  10: excitation energy (eV) =    3.6262
 Total energy for state 10:                 -3127.79427649 au
    <S**2>     :  8.9930
    Trans. Mom.:  0.0196 X  -0.0798 Y  -0.0061 Z
    Strength   :     0.0006033118
    D(  145) --> S(    4) amplitude = -0.3109 beta
    D(  146) --> S(    4) amplitude =  0.8119 beta
    D(  146) --> S(    5) amplitude =  0.1703 beta

 Excited state  11: excitation energy (eV) =    3.6493
 Total energy for state 11:                 -3127.79342588 au
    <S**2>     : 10.1032
    Trans. Mom.:  0.1406 X   0.1636 Y  -0.0757 Z
    Strength   :     0.0046736366
    S(    5) --> V(    2) amplitude = -0.1884 alpha
    S(    5) --> V(    5) amplitude =  0.5232 alpha
    D(  145) --> S(    4) amplitude = -0.1689 beta
    D(  146) --> S(    4) amplitude =  0.1984 beta
    D(  147) --> S(    1) amplitude = -0.2464 beta
    D(  147) --> S(    4) amplitude =  0.3164 beta
    D(  147) --> S(    5) amplitude = -0.2300 beta
    D(  147) --> V(    5) amplitude =  0.2884 beta
    D(  147) --> V(    8) amplitude = -0.1864 beta
    D(  147) --> V(   10) amplitude =  0.1688 beta

 Excited state  12: excitation energy (eV) =    3.7076
 Total energy for state 12:                 -3127.79128223 au
    <S**2>     :  8.8088
    Trans. Mom.:  0.2029 X  -0.0016 Y   0.0940 Z
    Strength   :     0.0045434508
    D(  145) --> S(    4) amplitude =  0.6092 beta
    D(  145) --> S(    5) amplitude =  0.4818 beta
    D(  146) --> S(    5) amplitude =  0.5203 beta

 Excited state  13: excitation energy (eV) =    3.7975
 Total energy for state 13:                 -3127.78797835 au
    <S**2>     :  8.8225
    Trans. Mom.: -0.1042 X  -0.0093 Y   0.0235 Z
    Strength   :     0.0010689836
    D(  136) --> S(    1) amplitude =  0.8341 beta
    D(  136) --> S(    3) amplitude =  0.1873 beta
    D(  137) --> S(    1) amplitude = -0.1725 beta
    D(  143) --> S(    1) amplitude =  0.1819 beta
    D(  146) --> S(    5) amplitude = -0.2168 beta

 Excited state  14: excitation energy (eV) =    3.8060
 Total energy for state 14:                 -3127.78766714 au
    <S**2>     :  8.8074
    Trans. Mom.:  0.1345 X  -0.0150 Y   0.0501 Z
    Strength   :     0.0019422494
    D(  136) --> S(    1) amplitude =  0.2298 beta
    D(  145) --> S(    5) amplitude = -0.5906 beta
    D(  146) --> S(    5) amplitude =  0.6822 beta

 Excited state  15: excitation energy (eV) =    3.9762
 Total energy for state 15:                 -3127.78141402 au
    <S**2>     :  8.7881
    Trans. Mom.:  0.0512 X  -0.0453 Y  -0.0213 Z
    Strength   :     0.0004993412
    D(  136) --> S(    2) amplitude =  0.6204 beta
    D(  136) --> S(    3) amplitude = -0.2341 beta
    D(  145) --> S(    4) amplitude =  0.3855 beta
    D(  145) --> S(    5) amplitude = -0.3586 beta
    D(  146) --> S(    4) amplitude =  0.2291 beta
    D(  146) --> S(    5) amplitude = -0.2080 beta

 Excited state  16: excitation energy (eV) =    3.9848
 Total energy for state 16:                 -3127.78109751 au
    <S**2>     :  8.7859
    Trans. Mom.: -0.1128 X  -0.1789 Y  -0.0056 Z
    Strength   :     0.0043697719
    D(  136) --> S(    2) amplitude =  0.5453 beta
    D(  136) --> S(    3) amplitude = -0.1859 beta
    D(  145) --> S(    4) amplitude = -0.4512 beta
    D(  145) --> S(    5) amplitude =  0.3797 beta
    D(  146) --> S(    4) amplitude = -0.3033 beta
    D(  146) --> S(    5) amplitude =  0.2332 beta

 Excited state  17: excitation energy (eV) =    4.0797
 Total energy for state 17:                 -3127.77761061 au
    <S**2>     :  8.7878
    Trans. Mom.: -0.0379 X  -0.1358 Y   0.0438 Z
    Strength   :     0.0021783375
    D(  135) --> S(    3) amplitude = -0.1540 beta
    D(  136) --> S(    1) amplitude = -0.1828 beta
    D(  136) --> S(    2) amplitude =  0.3065 beta
    D(  136) --> S(    3) amplitude =  0.8119 beta
    D(  137) --> S(    3) amplitude = -0.1665 beta
    D(  143) --> S(    3) amplitude =  0.1758 beta

 Excited state  18: excitation energy (eV) =    4.1879
 Total energy for state 18:                 -3127.77363425 au
    <S**2>     : 10.4962
    Trans. Mom.:  0.0136 X   0.0300 Y  -0.0031 Z
    Strength   :     0.0001123905
    S(    3) --> V(   12) amplitude = -0.2411 alpha
    S(    3) --> V(   14) amplitude =  0.1501 alpha
    S(    3) --> V(   16) amplitude =  0.3895 alpha
    S(    3) --> V(   18) amplitude =  0.2466 alpha
    S(    3) --> V(   20) amplitude = -0.1607 alpha
    D(  134) --> S(    2) amplitude = -0.1575 beta
    D(  145) --> V(   16) amplitude = -0.2253 beta
    D(  145) --> V(   17) amplitude =  0.2184 beta
    D(  145) --> V(   18) amplitude =  0.1508 beta
    D(  145) --> V(   22) amplitude =  0.1510 beta
    D(  146) --> V(   16) amplitude = -0.1722 beta
    D(  146) --> V(   17) amplitude =  0.1700 beta

 Excited state  19: excitation energy (eV) =    4.2486
 Total energy for state 19:                 -3127.77140337 au
    <S**2>     :  9.0472
    Trans. Mom.: -0.0944 X  -0.0448 Y   0.0451 Z
    Strength   :     0.0013479792
    D(  132) --> S(    2) amplitude = -0.2037 beta
    D(  133) --> S(    2) amplitude =  0.3248 beta
    D(  134) --> S(    2) amplitude =  0.6604 beta
    D(  135) --> S(    2) amplitude =  0.2423 beta

 Excited state  20: excitation energy (eV) =    4.2846
 Total energy for state 20:                 -3127.77007790 au
    <S**2>     : 10.1559
    Trans. Mom.:  0.0007 X  -0.0334 Y  -0.0344 Z
    Strength   :     0.0002416307
    S(    4) --> V(   15) amplitude =  0.1894 alpha
    S(    4) --> V(   17) amplitude = -0.3485 alpha
    S(    4) --> V(   18) amplitude =  0.2377 alpha
    S(    4) --> V(   19) amplitude = -0.2611 alpha
    S(    4) --> V(   27) amplitude =  0.1602 alpha
    D(  134) --> S(    1) amplitude = -0.1985 beta
    D(  134) --> S(    2) amplitude = -0.1867 beta
    D(  145) --> V(   19) amplitude = -0.1954 beta
    D(  146) --> V(   18) amplitude =  0.1957 beta
    D(  146) --> V(   19) amplitude =  0.2787 beta
    D(  146) --> V(   27) amplitude = -0.1906 beta

 Excited state  21: excitation energy (eV) =    4.3236
 Total energy for state 21:                 -3127.76864617 au
    <S**2>     :  8.9219
    Trans. Mom.:  0.3041 X   0.1485 Y  -0.0975 Z
    Strength   :     0.0131372766
    D(  124) --> S(    1) amplitude = -0.1591 beta
    D(  129) --> S(    1) amplitude = -0.1730 beta
    D(  133) --> S(    1) amplitude = -0.2696 beta
    D(  133) --> S(    3) amplitude =  0.1964 beta
    D(  134) --> S(    1) amplitude =  0.6165 beta
    D(  134) --> S(    2) amplitude = -0.1518 beta
    D(  134) --> S(    3) amplitude = -0.1928 beta
    D(  135) --> S(    1) amplitude =  0.3801 beta
    D(  139) --> S(    1) amplitude =  0.1757 beta

 Excited state  22: excitation energy (eV) =    4.3913
 Total energy for state 22:                 -3127.76615686 au
    <S**2>     :  8.8154
    Trans. Mom.:  0.4159 X  -0.0110 Y  -0.0770 Z
    Strength   :     0.0192564784
    S(    5) --> V(    5) amplitude =  0.1530 alpha
    D(  135) --> S(    5) amplitude =  0.1505 beta
    D(  147) --> S(    5) amplitude =  0.8898 beta

 Excited state  23: excitation energy (eV) =    4.4379
 Total energy for state 23:                 -3127.76444501 au
    <S**2>     :  8.7915
    Trans. Mom.:  0.1901 X   0.1047 Y   0.0158 Z
    Strength   :     0.0051483625
    D(  123) --> S(    1) amplitude = -0.1857 beta
    D(  128) --> S(    1) amplitude = -0.1723 beta
    D(  129) --> S(    3) amplitude = -0.1921 beta
    D(  133) --> S(    1) amplitude =  0.5344 beta
    D(  133) --> S(    3) amplitude = -0.3666 beta
    D(  134) --> S(    1) amplitude =  0.3896 beta
    D(  134) --> S(    3) amplitude =  0.2131 beta
    D(  135) --> S(    1) amplitude =  0.1833 beta

 Excited state  24: excitation energy (eV) =    4.4866
 Total energy for state 24:                 -3127.76265756 au
    <S**2>     :  8.8076
    Trans. Mom.: -0.0570 X  -0.0559 Y  -0.1378 Z
    Strength   :     0.0027869110
    D(  133) --> S(    1) amplitude = -0.4412 beta
    D(  134) --> S(    3) amplitude =  0.6038 beta
    D(  135) --> S(    3) amplitude =  0.3037 beta
    D(  147) --> S(    4) amplitude = -0.1638 beta

 Excited state  25: excitation energy (eV) =    4.5223
 Total energy for state 25:                 -3127.76134491 au
    <S**2>     :  8.8422
    Trans. Mom.: -0.4499 X   0.1322 Y   0.1801 Z
    Strength   :     0.0279523757
    S(    5) --> V(    5) amplitude = -0.1788 alpha
    D(  134) --> S(    3) amplitude =  0.1766 beta
    D(  147) --> S(    4) amplitude =  0.8432 beta

 Excited state  26: excitation energy (eV) =    4.5789
 Total energy for state 26:                 -3127.75926344 au
    <S**2>     :  8.9199
    Trans. Mom.:  0.0317 X   0.1278 Y  -0.0741 Z
    Strength   :     0.0025623253
    D(  133) --> S(    1) amplitude = -0.2124 beta
    D(  133) --> S(    3) amplitude = -0.4319 beta
    D(  134) --> S(    1) amplitude = -0.3599 beta
    D(  134) --> S(    3) amplitude = -0.2658 beta
    D(  135) --> S(    1) amplitude =  0.3841 beta
    D(  139) --> S(    1) amplitude =  0.2926 beta
    D(  147) --> S(    4) amplitude =  0.1537 beta

 Excited state  27: excitation energy (eV) =    4.6021
 Total energy for state 27:                 -3127.75841094 au
    <S**2>     :  8.8991
    Trans. Mom.:  0.0786 X   0.0128 Y   0.0517 Z
    Strength   :     0.0010171900
    D(  129) --> S(    1) amplitude =  0.1867 beta
    D(  131) --> S(    1) amplitude =  0.2228 beta
    D(  132) --> S(    3) amplitude = -0.1607 beta
    D(  133) --> S(    1) amplitude =  0.2638 beta
    D(  133) --> S(    2) amplitude =  0.2647 beta
    D(  133) --> S(    3) amplitude =  0.3788 beta
    D(  134) --> S(    1) amplitude = -0.2305 beta
    D(  134) --> S(    3) amplitude =  0.2188 beta
    D(  135) --> S(    1) amplitude =  0.3577 beta
    D(  135) --> S(    3) amplitude =  0.1505 beta
    D(  139) --> S(    1) amplitude =  0.2565 beta

 Excited state  28: excitation energy (eV) =    4.6726
 Total energy for state 28:                 -3127.75581922 au
    <S**2>     :  8.8027
    Trans. Mom.:  0.1559 X   0.0959 Y   0.0237 Z
    Strength   :     0.0038988539
    D(  133) --> S(    2) amplitude = -0.6983 beta
    D(  133) --> S(    3) amplitude =  0.3183 beta
    D(  134) --> S(    2) amplitude =  0.2422 beta
    D(  135) --> S(    2) amplitude =  0.3340 beta
    D(  139) --> S(    2) amplitude =  0.1969 beta

 Excited state  29: excitation energy (eV) =    4.7956
 Total energy for state 29:                 -3127.75129927 au
    <S**2>     :  8.7999
    Trans. Mom.:  0.0670 X   0.0069 Y  -0.0425 Z
    Strength   :     0.0007450802
    D(  131) --> S(    2) amplitude =  0.2138 beta
    D(  132) --> S(    2) amplitude = -0.1910 beta
    D(  134) --> S(    2) amplitude = -0.3259 beta
    D(  134) --> S(    3) amplitude = -0.2657 beta
    D(  135) --> S(    2) amplitude =  0.4178 beta
    D(  135) --> S(    3) amplitude =  0.3452 beta
    D(  139) --> S(    2) amplitude =  0.3104 beta
    D(  139) --> S(    3) amplitude =  0.2427 beta

 Excited state  30: excitation energy (eV) =    4.8266
 Total energy for state 30:                 -3127.75016080 au
    <S**2>     :  8.8061
    Trans. Mom.: -0.0358 X  -0.2473 Y   0.0486 Z
    Strength   :     0.0076623584
    D(  131) --> S(    2) amplitude = -0.2075 beta
    D(  131) --> S(    3) amplitude =  0.2024 beta
    D(  133) --> S(    2) amplitude = -0.1948 beta
    D(  134) --> S(    2) amplitude =  0.2658 beta
    D(  134) --> S(    3) amplitude = -0.2802 beta
    D(  135) --> S(    2) amplitude = -0.3302 beta
    D(  135) --> S(    3) amplitude =  0.4608 beta
    D(  139) --> S(    2) amplitude = -0.2396 beta
    D(  139) --> S(    3) amplitude =  0.3320 beta

 Excited state  31: excitation energy (eV) =    4.9014
 Total energy for state 31:                 -3127.74741213 au
    <S**2>     :  8.8830
    Trans. Mom.: -0.0253 X  -0.0414 Y  -0.0026 Z
    Strength   :     0.0002839646
    D(  124) --> S(    1) amplitude = -0.1645 beta
    D(  128) --> S(    1) amplitude =  0.1797 beta
    D(  129) --> S(    1) amplitude = -0.4837 beta
    D(  130) --> S(    1) amplitude = -0.2558 beta
    D(  131) --> S(    1) amplitude = -0.5054 beta
    D(  133) --> S(    1) amplitude =  0.3447 beta
    D(  134) --> S(    1) amplitude = -0.2502 beta

 Excited state  32: excitation energy (eV) =    4.9301
 Total energy for state 32:                 -3127.74635936 au
    <S**2>     :  8.8587
    Trans. Mom.:  0.0542 X   0.0923 Y  -0.1073 Z
    Strength   :     0.0027741911
    D(  123) --> S(    1) amplitude =  0.1577 beta
    D(  125) --> S(    1) amplitude = -0.2296 beta
    D(  127) --> S(    1) amplitude =  0.2324 beta
    D(  130) --> S(    1) amplitude =  0.1792 beta
    D(  131) --> S(    1) amplitude =  0.2022 beta
    D(  132) --> S(    1) amplitude =  0.7560 beta

 Excited state  33: excitation energy (eV) =    5.0254
 Total energy for state 33:                 -3127.74285404 au
    <S**2>     :  8.8022
    Trans. Mom.: -0.3086 X  -0.0838 Y   0.0239 Z
    Strength   :     0.0126625733
    D(  124) --> S(    2) amplitude = -0.1721 beta
    D(  128) --> S(    2) amplitude =  0.1913 beta
    D(  129) --> S(    2) amplitude = -0.4999 beta
    D(  130) --> S(    2) amplitude = -0.2470 beta
    D(  131) --> S(    2) amplitude = -0.4759 beta
    D(  132) --> S(    2) amplitude = -0.1800 beta
    D(  132) --> S(    3) amplitude =  0.1905 beta
    D(  133) --> S(    2) amplitude =  0.1778 beta
    D(  134) --> S(    2) amplitude = -0.2843 beta

 Excited state  34: excitation energy (eV) =    5.0548
 Total energy for state 34:                 -3127.74177431 au
    <S**2>     :  8.8080
    Trans. Mom.: -0.3061 X   0.0845 Y   0.1229 Z
    Strength   :     0.0143536537
    D(  125) --> S(    3) amplitude = -0.1648 beta
    D(  127) --> S(    3) amplitude =  0.2325 beta
    D(  129) --> S(    2) amplitude =  0.1565 beta
    D(  130) --> S(    3) amplitude =  0.1619 beta
    D(  131) --> S(    2) amplitude =  0.1733 beta
    D(  131) --> S(    3) amplitude =  0.1779 beta
    D(  132) --> S(    2) amplitude =  0.2063 beta
    D(  132) --> S(    3) amplitude =  0.6416 beta
    D(  133) --> S(    3) amplitude =  0.2506 beta

 Excited state  35: excitation energy (eV) =    5.0808
 Total energy for state 35:                 -3127.74082056 au
    <S**2>     :  8.9315
    Trans. Mom.:  0.0588 X  -0.0231 Y  -0.0757 Z
    Strength   :     0.0012100106
    D(  123) --> S(    2) amplitude =  0.1583 beta
    D(  125) --> S(    2) amplitude = -0.1680 beta
    D(  127) --> S(    2) amplitude =  0.1881 beta
    D(  129) --> S(    2) amplitude = -0.2218 beta
    D(  131) --> S(    3) amplitude = -0.1921 beta
    D(  132) --> S(    2) amplitude =  0.5981 beta
    D(  133) --> S(    2) amplitude =  0.2270 beta
    D(  135) --> S(    2) amplitude =  0.1676 beta
    D(  136) --> S(    4) amplitude = -0.1829 beta
    D(  136) --> S(    5) amplitude =  0.2116 beta

 Excited state  36: excitation energy (eV) =    5.1258
 Total energy for state 36:                 -3127.73916729 au
    <S**2>     :  9.4274
    Trans. Mom.:  0.8017 X   0.2691 Y  -0.2823 Z
    Strength   :     0.0998197830
    D(  139) --> V(    5) amplitude = -0.2084 alpha
    D(  143) --> V(    5) amplitude =  0.2552 alpha
    S(    1) --> V(    5) amplitude = -0.1949 alpha
    S(    5) --> V(    5) amplitude =  0.2271 alpha
    D(  131) --> S(    3) amplitude =  0.2379 beta
    D(  132) --> S(    3) amplitude =  0.1617 beta
    D(  134) --> S(    3) amplitude =  0.1533 beta
    D(  136) --> S(    5) amplitude =  0.3247 beta
    D(  147) --> V(    5) amplitude = -0.1893 beta

 Excited state  37: excitation energy (eV) =    5.1635
 Total energy for state 37:                 -3127.73778141 au
    <S**2>     :  9.1463
    Trans. Mom.:  0.1780 X  -0.1045 Y   0.0427 Z
    Strength   :     0.0056209946
    D(  139) --> V(    5) amplitude =  0.1687 alpha
    D(  129) --> S(    1) amplitude =  0.1545 beta
    D(  129) --> S(    3) amplitude =  0.3134 beta
    D(  130) --> S(    3) amplitude =  0.2578 beta
    D(  131) --> S(    3) amplitude =  0.4722 beta
    D(  132) --> S(    2) amplitude =  0.2355 beta
    D(  133) --> S(    3) amplitude = -0.2148 beta
    D(  134) --> S(    3) amplitude =  0.1864 beta
    D(  136) --> S(    4) amplitude =  0.1687 beta

 Excited state  38: excitation energy (eV) =    5.1769
 Total energy for state 38:                 -3127.73728725 au
    <S**2>     :  9.4712
    Trans. Mom.: -0.2005 X  -0.1608 Y   0.1085 Z
    Strength   :     0.0098716258
    D(  138) --> V(    5) amplitude = -0.1994 alpha
    D(  144) --> V(    5) amplitude =  0.3034 alpha
    D(  145) --> V(    5) amplitude = -0.1655 alpha
    D(  147) --> V(    5) amplitude = -0.1696 alpha
    S(    1) --> V(    5) amplitude = -0.2415 alpha
    S(    4) --> V(    5) amplitude =  0.1655 alpha
    D(  129) --> S(    1) amplitude =  0.2504 beta
    D(  131) --> S(    1) amplitude = -0.1590 beta
    D(  132) --> S(    2) amplitude = -0.1810 beta

 Excited state  39: excitation energy (eV) =    5.1960
 Total energy for state 39:                 -3127.73658663 au
    <S**2>     : 10.4488
    Trans. Mom.: -0.3530 X   0.0062 Y   0.1347 Z
    Strength   :     0.0181761633
    D(  147) --> V(   22) amplitude =  0.2403 alpha
    D(  147) --> V(   26) amplitude =  0.1902 alpha
    D(  141) --> V(   22) amplitude = -0.1810 beta
    D(  142) --> V(   22) amplitude = -0.1972 beta

 Excited state  40: excitation energy (eV) =    5.2101
 Total energy for state 40:                 -3127.73606694 au
    <S**2>     :  9.1772
    Trans. Mom.: -1.0120 X  -0.0389 Y   0.3702 Z
    Strength   :     0.1484037622
    S(    5) --> V(    5) amplitude = -0.2543 alpha
    D(  129) --> S(    3) amplitude =  0.2219 beta
    D(  131) --> S(    3) amplitude =  0.1689 beta
    D(  132) --> S(    3) amplitude = -0.2097 beta
    D(  133) --> S(    3) amplitude = -0.2117 beta
    D(  136) --> S(    4) amplitude = -0.3926 beta
    D(  147) --> V(    5) amplitude =  0.2920 beta
    D(  147) --> V(    8) amplitude = -0.1766 beta
    D(  147) --> V(   10) amplitude =  0.1666 beta

 Excited state  41: excitation energy (eV) =    5.3242
 Total energy for state 41:                 -3127.73187510 au
    <S**2>     :  8.9655
    Trans. Mom.: -0.4786 X  -0.1225 Y   0.1266 Z
    Strength   :     0.0339240303
    D(  125) --> S(    1) amplitude =  0.1608 beta
    D(  129) --> S(    1) amplitude = -0.4020 beta
    D(  130) --> S(    1) amplitude =  0.2453 beta
    D(  131) --> S(    1) amplitude =  0.3184 beta
    D(  135) --> S(    1) amplitude = -0.1612 beta
    D(  136) --> S(    4) amplitude =  0.1874 beta
    D(  136) --> S(    5) amplitude = -0.1917 beta
    D(  137) --> S(    1) amplitude =  0.1726 beta
    D(  142) --> S(    1) amplitude = -0.1805 beta
    D(  144) --> S(    1) amplitude =  0.2874 beta

 Excited state  42: excitation energy (eV) =    5.3626
 Total energy for state 42:                 -3127.73046192 au
    <S**2>     :  9.0237
    Trans. Mom.:  0.3319 X   0.1940 Y  -0.0503 Z
    Strength   :     0.0197544666
    D(  129) --> S(    1) amplitude =  0.2007 beta
    D(  130) --> S(    1) amplitude = -0.1518 beta
    D(  131) --> S(    1) amplitude = -0.2090 beta
    D(  136) --> S(    4) amplitude = -0.1526 beta
    D(  137) --> S(    1) amplitude =  0.2827 beta
    D(  141) --> S(    1) amplitude = -0.3511 beta
    D(  142) --> S(    1) amplitude = -0.4122 beta
    D(  144) --> S(    1) amplitude =  0.4811 beta

 Excited state  43: excitation energy (eV) =    5.3655
 Total energy for state 43:                 -3127.73035571 au
    <S**2>     :  9.0511
    Trans. Mom.:  0.2227 X   0.4542 Y  -0.0279 Z
    Strength   :     0.0337404774
    D(  139) --> V(    5) amplitude =  0.1746 alpha
    D(  143) --> V(    5) amplitude = -0.1693 alpha
    D(  129) --> S(    2) amplitude =  0.2757 beta
    D(  130) --> S(    2) amplitude = -0.1618 beta
    D(  131) --> S(    2) amplitude = -0.2293 beta
    D(  135) --> S(    4) amplitude =  0.1929 beta
    D(  136) --> S(    4) amplitude = -0.4788 beta
    D(  136) --> S(    5) amplitude =  0.3423 beta

 Excited state  44: excitation energy (eV) =    5.4106
 Total energy for state 44:                 -3127.72869909 au
    <S**2>     : 10.0676
    Trans. Mom.:  0.0402 X   0.0040 Y  -0.0211 Z
    Strength   :     0.0002753700
    D(  140) --> V(   22) amplitude = -0.2185 alpha
    D(  140) --> V(   26) amplitude = -0.1745 alpha
    D(  137) --> S(    1) amplitude =  0.1954 beta
    D(  137) --> V(   20) amplitude = -0.1611 beta
    D(  137) --> V(   22) amplitude =  0.2269 beta
    D(  137) --> V(   26) amplitude = -0.1687 beta
    D(  138) --> S(    1) amplitude = -0.2630 beta
    D(  141) --> S(    1) amplitude =  0.3059 beta
    D(  142) --> S(    1) amplitude =  0.3394 beta

 Excited state  45: excitation energy (eV) =    5.4402
 Total energy for state 45:                 -3127.72761350 au
    <S**2>     :  8.8521
    Trans. Mom.:  0.0366 X   0.3091 Y  -0.1070 Z
    Strength   :     0.0144343080
    D(  124) --> S(    2) amplitude = -0.1558 beta
    D(  125) --> S(    2) amplitude =  0.1586 beta
    D(  129) --> S(    2) amplitude = -0.3852 beta
    D(  129) --> S(    3) amplitude =  0.3081 beta
    D(  130) --> S(    2) amplitude =  0.2789 beta
    D(  131) --> S(    2) amplitude =  0.3735 beta
    D(  131) --> S(    3) amplitude = -0.1803 beta
    D(  132) --> S(    2) amplitude = -0.1668 beta
    D(  132) --> S(    3) amplitude =  0.1847 beta
    D(  136) --> S(    4) amplitude = -0.1848 beta
    D(  144) --> S(    2) amplitude =  0.1656 beta

 Excited state  46: excitation energy (eV) =    5.4487
 Total energy for state 46:                 -3127.72729958 au
    <S**2>     :  8.8398
    Trans. Mom.:  0.1245 X   0.0340 Y  -0.0805 Z
    Strength   :     0.0030876659
    D(  124) --> S(    3) amplitude = -0.1760 beta
    D(  125) --> S(    3) amplitude =  0.2025 beta
    D(  128) --> S(    3) amplitude =  0.1584 beta
    D(  129) --> S(    2) amplitude = -0.1722 beta
    D(  129) --> S(    3) amplitude = -0.4766 beta
    D(  130) --> S(    3) amplitude =  0.2393 beta
    D(  131) --> S(    2) amplitude =  0.1880 beta
    D(  131) --> S(    3) amplitude =  0.3074 beta
    D(  132) --> S(    3) amplitude = -0.2362 beta
    D(  136) --> S(    4) amplitude = -0.2967 beta

 Excited state  47: excitation energy (eV) =    5.4863
 Total energy for state 47:                 -3127.72591644 au
    <S**2>     :  9.0779
    Trans. Mom.:  1.1913 X  -0.2810 Y  -0.1435 Z
    Strength   :     0.2041262672
    S(    5) --> V(    5) amplitude =  0.2852 alpha
    D(  136) --> S(    4) amplitude = -0.2831 beta
    D(  136) --> S(    5) amplitude = -0.4633 beta
    D(  137) --> S(    1) amplitude =  0.1682 beta
    D(  142) --> S(    2) amplitude =  0.1672 beta
    D(  144) --> S(    1) amplitude =  0.1530 beta
    D(  147) --> V(    1) amplitude =  0.1606 beta

 Excited state  48: excitation energy (eV) =    5.4968
 Total energy for state 48:                 -3127.72553142 au
    <S**2>     :  9.3239
    Trans. Mom.: -0.6318 X   0.2143 Y   0.0742 Z
    Strength   :     0.0606895524
    S(    5) --> V(    1) amplitude = -0.1938 alpha
    D(  136) --> S(    4) amplitude =  0.1686 beta
    D(  136) --> S(    5) amplitude =  0.2479 beta
    D(  137) --> S(    1) amplitude =  0.2853 beta
    D(  138) --> S(    1) amplitude = -0.2384 beta
    D(  140) --> S(    1) amplitude = -0.1843 beta
    D(  141) --> S(    1) amplitude =  0.2108 beta
    D(  141) --> S(    2) amplitude = -0.1530 beta
    D(  142) --> S(    1) amplitude =  0.2294 beta
    D(  142) --> S(    2) amplitude = -0.1807 beta
    D(  144) --> S(    1) amplitude =  0.3089 beta
    D(  144) --> S(    2) amplitude =  0.2452 beta
    D(  147) --> V(    1) amplitude =  0.1675 beta
    D(  147) --> V(    5) amplitude =  0.1875 beta

 Excited state  49: excitation energy (eV) =    5.5123
 Total energy for state 49:                 -3127.72496195 au
    <S**2>     :  8.8414
    Trans. Mom.: -0.6096 X   0.3059 Y   0.0676 Z
    Strength   :     0.0634434369
    D(  131) --> S(    2) amplitude =  0.2110 beta
    D(  136) --> S(    5) amplitude =  0.2539 beta
    D(  137) --> S(    2) amplitude = -0.1905 beta
    D(  141) --> S(    2) amplitude =  0.3874 beta
    D(  142) --> S(    2) amplitude =  0.4556 beta
    D(  144) --> S(    2) amplitude = -0.4294 beta

 Excited state  50: excitation energy (eV) =    5.5325
 Total energy for state 50:                 -3127.72422070 au
    <S**2>     : 10.3127
    Trans. Mom.: -0.1079 X   0.0028 Y  -0.0003 Z
    Strength   :     0.0015789994
    D(  140) --> V(   22) amplitude = -0.1554 alpha
    S(    5) --> V(    1) amplitude = -0.2630 alpha
    S(    5) --> V(    3) amplitude = -0.1598 alpha
    S(    5) --> V(    4) amplitude = -0.1756 alpha
    D(  140) --> S(    1) amplitude =  0.2383 beta
    D(  143) --> S(    1) amplitude =  0.1974 beta
    D(  144) --> S(    1) amplitude = -0.1913 beta
    D(  147) --> V(    1) amplitude =  0.3489 beta
    D(  147) --> V(    3) amplitude =  0.2292 beta
    D(  147) --> V(    4) amplitude =  0.2430 beta
    D(  147) --> V(    5) amplitude =  0.1919 beta

 Excited state  51: excitation energy (eV) =    5.5546
 Total energy for state 51:                 -3127.72340927 au
    <S**2>     :  8.7750
    Trans. Mom.:  0.1297 X   0.0648 Y  -0.2880 Z
    Strength   :     0.0141449047
    S(    5) --> V(    1) amplitude =  0.3998 alpha
    S(    5) --> V(    3) amplitude =  0.2429 alpha
    S(    5) --> V(    4) amplitude =  0.2895 alpha
    S(    5) --> V(    5) amplitude = -0.1746 alpha
    S(    5) --> V(    7) amplitude =  0.1857 alpha
    D(  140) --> S(    1) amplitude = -0.2029 beta
    D(  143) --> S(    1) amplitude = -0.1717 beta
    D(  147) --> V(    1) amplitude =  0.3851 beta
    D(  147) --> V(    3) amplitude =  0.2582 beta
    D(  147) --> V(    4) amplitude =  0.2770 beta

 Excited state  52: excitation energy (eV) =    5.5591
 Total energy for state 52:                 -3127.72324213 au
    <S**2>     :  8.9850
    Trans. Mom.: -0.0905 X   0.0910 Y  -0.0608 Z
    Strength   :     0.0027469645
    S(    5) --> V(    1) amplitude =  0.1629 alpha
    D(  137) --> S(    1) amplitude =  0.1945 beta
    D(  138) --> S(    1) amplitude = -0.1504 beta
    D(  140) --> S(    1) amplitude =  0.6430 beta
    D(  143) --> S(    1) amplitude =  0.5215 beta
    D(  144) --> S(    1) amplitude =  0.1927 beta

 Excited state  53: excitation energy (eV) =    5.5983
 Total energy for state 53:                 -3127.72180359 au
    <S**2>     :  8.8038
    Trans. Mom.: -0.0869 X   0.0768 Y   0.0109 Z
    Strength   :     0.0018618196
    D(  137) --> S(    3) amplitude =  0.2453 beta
    D(  141) --> S(    3) amplitude = -0.4586 beta
    D(  142) --> S(    3) amplitude = -0.5408 beta
    D(  144) --> S(    3) amplitude =  0.5437 beta

 Excited state  54: excitation energy (eV) =    5.6511
 Total energy for state 54:                 -3127.71986132 au
    <S**2>     :  8.8224
    Trans. Mom.:  0.0405 X   0.0253 Y  -0.0241 Z
    Strength   :     0.0003956512
    D(  137) --> S(    2) amplitude =  0.4310 beta
    D(  138) --> S(    2) amplitude = -0.3575 beta
    D(  141) --> S(    2) amplitude =  0.3540 beta
    D(  142) --> S(    2) amplitude =  0.3877 beta
    D(  144) --> S(    2) amplitude =  0.5227 beta

 Excited state  55: excitation energy (eV) =    5.6680
 Total energy for state 55:                 -3127.71923976 au
    <S**2>     : 10.1840
    Trans. Mom.:  0.0758 X   0.0967 Y  -0.0943 Z
    Strength   :     0.0033309361
    S(    4) --> V(    1) amplitude = -0.2176 alpha
    D(  145) --> V(    1) amplitude = -0.2167 beta
    D(  145) --> V(    2) amplitude =  0.1770 beta
    D(  146) --> V(    1) amplitude =  0.5600 beta
    D(  146) --> V(    2) amplitude = -0.2047 beta
    D(  146) --> V(    4) amplitude = -0.2727 beta

 Excited state  56: excitation energy (eV) =    5.6987
 Total energy for state 56:                 -3127.71811222 au
    <S**2>     :  9.1500
    Trans. Mom.:  0.4540 X   0.1702 Y  -0.2428 Z
    Strength   :     0.0410538102
    S(    4) --> V(    1) amplitude =  0.5306 alpha
    S(    4) --> V(    2) amplitude = -0.2022 alpha
    S(    4) --> V(    4) amplitude = -0.3052 alpha
    D(  134) --> S(    4) amplitude =  0.2902 beta
    D(  134) --> S(    5) amplitude =  0.2328 beta

 Excited state  57: excitation energy (eV) =    5.7065
 Total energy for state 57:                 -3127.71782510 au
    <S**2>     :  8.9236
    Trans. Mom.:  0.0396 X  -0.0125 Y   0.0383 Z
    Strength   :     0.0004463239
    D(  132) --> S(    1) amplitude =  0.1852 beta
    D(  136) --> S(    1) amplitude = -0.1668 beta
    D(  140) --> S(    1) amplitude = -0.5771 beta
    D(  143) --> S(    1) amplitude =  0.6806 beta

 Excited state  58: excitation energy (eV) =    5.7191
 Total energy for state 58:                 -3127.71736228 au
    <S**2>     :  8.9178
    Trans. Mom.:  0.0105 X  -0.0209 Y  -0.0025 Z
    Strength   :     0.0000777848
    D(  141) --> S(    1) amplitude =  0.7234 beta
    D(  142) --> S(    1) amplitude = -0.5832 beta

 Excited state  59: excitation energy (eV) =    5.7218
 Total energy for state 59:                 -3127.71726488 au
    <S**2>     : 10.3595
    Trans. Mom.: -0.0345 X   0.0038 Y  -0.0038 Z
    Strength   :     0.0001712231
    S(    2) --> V(   39) amplitude =  0.1679 alpha
    S(    2) --> V(   41) amplitude =  0.1707 alpha
    S(    2) --> V(   42) amplitude = -0.1548 alpha
    D(  137) --> S(    3) amplitude =  0.1563 beta
    D(  141) --> S(    1) amplitude =  0.1566 beta
    D(  142) --> S(    1) amplitude = -0.1712 beta
    D(  144) --> S(    3) amplitude =  0.1953 beta
    D(  144) --> V(   29) amplitude =  0.1514 beta
    D(  144) --> V(   39) amplitude = -0.1775 beta
    D(  144) --> V(   41) amplitude = -0.1872 beta
    D(  144) --> V(   42) amplitude =  0.1620 beta

 Excited state  60: excitation energy (eV) =    5.7306
 Total energy for state 60:                 -3127.71693957 au
    <S**2>     :  9.0831
    Trans. Mom.: -0.3762 X   0.0656 Y   0.0481 Z
    Strength   :     0.0208008847
    S(    3) --> V(    5) amplitude =  0.1629 alpha
    S(    4) --> V(    1) amplitude =  0.1634 alpha
    D(  134) --> S(    4) amplitude = -0.1667 beta
    D(  137) --> S(    3) amplitude =  0.2834 beta
    D(  138) --> S(    3) amplitude = -0.2394 beta
    D(  140) --> S(    3) amplitude = -0.1984 beta
    D(  141) --> S(    3) amplitude =  0.2192 beta
    D(  142) --> S(    3) amplitude =  0.2467 beta
    D(  143) --> S(    3) amplitude = -0.1928 beta
    D(  144) --> S(    3) amplitude =  0.3264 beta
    D(  146) --> V(    1) amplitude =  0.1644 beta

 Excited state  61: excitation energy (eV) =    5.7332
 Total energy for state 61:                 -3127.71684484 au
    <S**2>     :  9.0291
    Trans. Mom.:  0.2230 X  -0.0510 Y  -0.0140 Z
    Strength   :     0.0073803390
    S(    3) --> V(    5) amplitude = -0.1731 alpha
    D(  123) --> S(    1) amplitude = -0.2613 beta
    D(  124) --> S(    1) amplitude = -0.1602 beta
    D(  134) --> S(    4) amplitude =  0.2042 beta
    D(  137) --> S(    3) amplitude =  0.2425 beta
    D(  138) --> S(    3) amplitude = -0.2104 beta
    D(  141) --> S(    3) amplitude =  0.1955 beta
    D(  142) --> S(    1) amplitude = -0.1625 beta
    D(  142) --> S(    3) amplitude =  0.2040 beta
    D(  144) --> S(    3) amplitude =  0.2839 beta
    D(  146) --> V(    1) amplitude = -0.1581 beta

 Excited state  62: excitation energy (eV) =    5.7442
 Total energy for state 62:                 -3127.71643897 au
    <S**2>     :  9.4403
    Trans. Mom.: -0.1439 X   0.0958 Y   0.1536 Z
    Strength   :     0.0075227157
    S(    4) --> V(    1) amplitude =  0.1531 alpha
    D(  122) --> S(    1) amplitude = -0.1539 beta
    D(  123) --> S(    1) amplitude = -0.3500 beta
    D(  124) --> S(    1) amplitude = -0.2323 beta
    D(  126) --> S(    1) amplitude =  0.1854 beta
    D(  131) --> S(    1) amplitude =  0.1924 beta
    D(  145) --> V(    1) amplitude =  0.3067 beta
    D(  145) --> V(    3) amplitude = -0.1564 beta
    D(  146) --> V(    1) amplitude =  0.2412 beta

 Excited state  63: excitation energy (eV) =    5.7594
 Total energy for state 63:                 -3127.71588172 au
    <S**2>     : 10.7531
    Trans. Mom.: -0.0059 X   0.0041 Y   0.0034 Z
    Strength   :     0.0000089272
    D(  141) --> V(   39) amplitude =  0.1553 alpha
    D(  141) --> V(   41) amplitude =  0.1564 alpha
    D(  138) --> V(   39) amplitude = -0.1608 beta
    D(  138) --> V(   41) amplitude = -0.1665 beta

 Excited state  64: excitation energy (eV) =    5.7630
 Total energy for state 64:                 -3127.71574748 au
    <S**2>     :  8.9487
    Trans. Mom.: -0.0073 X   0.0301 Y  -0.0167 Z
    Strength   :     0.0001752987
    D(  140) --> S(    2) amplitude =  0.6332 beta
    D(  143) --> S(    2) amplitude =  0.6437 beta

 Excited state  65: excitation energy (eV) =    5.7757
 Total energy for state 65:                 -3127.71528269 au
    <S**2>     :  9.9379
    Trans. Mom.: -0.0954 X  -0.0632 Y   0.0833 Z
    Strength   :     0.0028360416
    S(    3) --> V(    1) amplitude =  0.3458 alpha
    S(    3) --> V(    5) amplitude =  0.1950 alpha
    D(  123) --> S(    1) amplitude = -0.2000 beta
    D(  145) --> V(    1) amplitude = -0.1802 beta

 Excited state  66: excitation energy (eV) =    5.7804
 Total energy for state 66:                 -3127.71511004 au
    <S**2>     : 10.0869
    Trans. Mom.:  0.0102 X   0.1015 Y  -0.0563 Z
    Strength   :     0.0019216467
    S(    1) --> V(   43) amplitude =  0.1550 alpha
    S(    3) --> V(    1) amplitude = -0.1866 alpha
    D(  140) --> S(    3) amplitude =  0.2950 beta
    D(  143) --> S(    3) amplitude =  0.2993 beta
    D(  143) --> V(   39) amplitude =  0.1529 beta
    D(  143) --> V(   43) amplitude = -0.1835 beta

 Excited state  67: excitation energy (eV) =    5.7857
 Total energy for state 67:                 -3127.71491437 au
    <S**2>     :  9.1054
    Trans. Mom.:  0.1116 X  -0.1771 Y  -0.0496 Z
    Strength   :     0.0065620442
    S(    3) --> V(    5) amplitude =  0.1831 alpha
    D(  134) --> S(    5) amplitude =  0.2090 beta
    D(  140) --> S(    3) amplitude =  0.5184 beta
    D(  143) --> S(    3) amplitude =  0.4623 beta

 Excited state  68: excitation energy (eV) =    5.7892
 Total energy for state 68:                 -3127.71478732 au
    <S**2>     :  9.7872
    Trans. Mom.:  0.2362 X  -0.2456 Y  -0.0209 Z
    Strength   :     0.0165308446
    S(    3) --> V(    1) amplitude = -0.1733 alpha
    S(    3) --> V(    2) amplitude = -0.1833 alpha
    D(  123) --> S(    2) amplitude =  0.1718 beta
    D(  134) --> S(    5) amplitude =  0.2128 beta
    D(  139) --> V(   43) amplitude = -0.1560 beta
    D(  145) --> V(    1) amplitude =  0.2149 beta

 Excited state  69: excitation energy (eV) =    5.7946
 Total energy for state 69:                 -3127.71458716 au
    <S**2>     :  9.9491
    Trans. Mom.: -0.0942 X   0.1743 Y  -0.0369 Z
    Strength   :     0.0057645711
    S(    1) --> V(   39) amplitude =  0.1690 alpha
    S(    1) --> V(   43) amplitude = -0.2045 alpha
    D(  134) --> S(    5) amplitude = -0.1890 beta
    D(  140) --> S(    2) amplitude = -0.2005 beta
    D(  140) --> S(    3) amplitude =  0.2359 beta
    D(  143) --> S(    3) amplitude =  0.2337 beta
    D(  143) --> V(   39) amplitude = -0.1793 beta
    D(  143) --> V(   42) amplitude = -0.1547 beta
    D(  143) --> V(   43) amplitude =  0.2120 beta

 Excited state  70: excitation energy (eV) =    5.7978
 Total energy for state 70:                 -3127.71447048 au
    <S**2>     :  8.8511
    Trans. Mom.:  0.0566 X   0.2161 Y   0.2301 Z
    Strength   :     0.0146102057
    S(    3) --> V(    1) amplitude =  0.2921 alpha
    S(    3) --> V(    2) amplitude =  0.1906 alpha
    D(  123) --> S(    2) amplitude =  0.4291 beta
    D(  124) --> S(    2) amplitude =  0.1835 beta
    D(  130) --> S(    2) amplitude =  0.2200 beta
    D(  133) --> S(    4) amplitude =  0.1689 beta
    D(  134) --> S(    5) amplitude = -0.1500 beta
    D(  141) --> S(    2) amplitude =  0.1661 beta
    D(  145) --> V(    1) amplitude =  0.2077 beta

 Excited state  71: excitation energy (eV) =    5.8180
 Total energy for state 71:                 -3127.71372937 au
    <S**2>     :  8.8233
    Trans. Mom.:  0.2326 X   0.0573 Y   0.2985 Z
    Strength   :     0.0208832699
    S(    3) --> V(    1) amplitude =  0.2366 alpha
    S(    3) --> V(    2) amplitude =  0.2263 alpha
    D(  123) --> S(    2) amplitude = -0.2509 beta
    D(  134) --> S(    4) amplitude =  0.1820 beta
    D(  134) --> S(    5) amplitude =  0.2931 beta
    D(  135) --> S(    5) amplitude =  0.1645 beta
    D(  137) --> S(    1) amplitude = -0.1564 beta
    D(  144) --> S(    1) amplitude =  0.1878 beta
    D(  145) --> V(    1) amplitude =  0.2505 beta
    D(  146) --> V(    2) amplitude =  0.1569 beta

 Excited state  72: excitation energy (eV) =    5.8326
 Total energy for state 72:                 -3127.71319200 au
    <S**2>     :  8.8682
    Trans. Mom.: -0.1603 X  -0.1203 Y  -0.1264 Z
    Strength   :     0.0080234918
    D(  140) --> V(   22) amplitude = -0.1534 alpha
    S(    3) --> V(    5) amplitude =  0.1741 alpha
    D(  137) --> S(    1) amplitude = -0.4044 beta
    D(  138) --> S(    1) amplitude =  0.2539 beta
    D(  142) --> S(    1) amplitude =  0.2063 beta
    D(  144) --> S(    1) amplitude =  0.4963 beta

 Excited state  73: excitation energy (eV) =    5.8428
 Total energy for state 73:                 -3127.71281784 au
    <S**2>     :  8.7971
    Trans. Mom.: -0.0146 X   0.0009 Y   0.0366 Z
    Strength   :     0.0002219837
    D(  141) --> S(    2) amplitude =  0.6963 beta
    D(  142) --> S(    2) amplitude = -0.6390 beta

 Excited state  74: excitation energy (eV) =    5.8513
 Total energy for state 74:                 -3127.71250235 au
    <S**2>     :  9.6410
    Trans. Mom.: -0.3152 X   0.1460 Y  -0.0862 Z
    Strength   :     0.0183626189
    S(    3) --> V(    1) amplitude =  0.1801 alpha
    S(    3) --> V(    5) amplitude =  0.4413 alpha
    D(  135) --> S(    4) amplitude = -0.2817 beta
    D(  135) --> S(    5) amplitude =  0.1730 beta
    D(  136) --> V(    5) amplitude =  0.2227 beta
    D(  136) --> V(    8) amplitude = -0.1547 beta
    D(  139) --> S(    4) amplitude = -0.1899 beta
    D(  146) --> V(    5) amplitude =  0.1932 beta

 Excited state  75: excitation energy (eV) =    5.8628
 Total energy for state 75:                 -3127.71208244 au
    <S**2>     :  8.8638
    Trans. Mom.:  0.4000 X  -0.1584 Y   0.2528 Z
    Strength   :     0.0357615233
    S(    3) --> V(    5) amplitude =  0.2780 alpha
    D(  122) --> S(    1) amplitude =  0.2053 beta
    D(  123) --> S(    3) amplitude = -0.1680 beta
    D(  134) --> S(    4) amplitude =  0.3188 beta
    D(  135) --> S(    4) amplitude =  0.1505 beta

 Excited state  76: excitation energy (eV) =    5.8800
 Total energy for state 76:                 -3127.71144893 au
    <S**2>     :  8.8240
    Trans. Mom.: -0.2064 X   0.0263 Y  -0.0653 Z
    Strength   :     0.0068507647
    D(  140) --> V(   22) amplitude = -0.1971 alpha
    D(  140) --> V(   26) amplitude = -0.1544 alpha
    D(  137) --> S(    1) amplitude =  0.3453 beta
    D(  137) --> V(   20) amplitude =  0.1522 beta
    D(  137) --> V(   22) amplitude = -0.2102 beta
    D(  137) --> V(   26) amplitude =  0.1567 beta
    D(  138) --> S(    1) amplitude = -0.2249 beta
    D(  144) --> S(    1) amplitude = -0.2902 beta

 Excited state  77: excitation energy (eV) =    5.9001
 Total energy for state 77:                 -3127.71071118 au
    <S**2>     :  8.8274
    Trans. Mom.:  0.4745 X  -0.0267 Y   0.1229 Z
    Strength   :     0.0348269960
    D(  122) --> S(    1) amplitude = -0.2948 beta
    D(  122) --> S(    3) amplitude =  0.1877 beta
    D(  123) --> S(    1) amplitude =  0.2585 beta
    D(  126) --> S(    3) amplitude = -0.1676 beta
    D(  133) --> S(    4) amplitude = -0.2399 beta
    D(  133) --> S(    5) amplitude = -0.2884 beta
    D(  134) --> S(    5) amplitude = -0.2707 beta
    D(  140) --> S(    3) amplitude =  0.1746 beta
    D(  143) --> S(    3) amplitude = -0.1504 beta

 Excited state  78: excitation energy (eV) =    5.9136
 Total energy for state 78:                 -3127.71021437 au
    <S**2>     :  8.8215
    Trans. Mom.:  0.0424 X   0.0927 Y   0.0012 Z
    Strength   :     0.0015052894
    D(  122) --> S(    1) amplitude =  0.1705 beta
    D(  132) --> S(    2) amplitude = -0.1572 beta
    D(  136) --> S(    2) amplitude =  0.1604 beta
    D(  140) --> S(    2) amplitude =  0.6186 beta
    D(  140) --> S(    3) amplitude =  0.1610 beta
    D(  143) --> S(    2) amplitude = -0.6004 beta
    D(  143) --> S(    3) amplitude = -0.1609 beta

 Excited state  79: excitation energy (eV) =    5.9203
 Total energy for state 79:                 -3127.70996852 au
    <S**2>     :  8.9148
    Trans. Mom.:  0.1632 X   0.3322 Y   0.1676 Z
    Strength   :     0.0239386589
    D(  122) --> S(    3) amplitude =  0.2114 beta
    D(  124) --> S(    3) amplitude =  0.1706 beta
    D(  126) --> S(    3) amplitude = -0.2001 beta
    D(  133) --> S(    4) amplitude =  0.2032 beta
    D(  134) --> S(    5) amplitude =  0.1944 beta
    D(  140) --> S(    2) amplitude = -0.2011 beta
    D(  140) --> S(    3) amplitude =  0.3522 beta
[...]
  1.3290   1.3332   1.3346   1.3378   1.3439   1.3469   1.3509   1.3538
  1.3563   1.3569   1.3641   1.3646   1.3718   1.3734   1.3783   1.3795
  1.3837   1.3882   1.3915   1.3962   1.3995   1.4060   1.4081   1.4143
  1.4226   1.4240   1.4306   1.4345   1.4410   1.4450   1.4507   1.4513
  1.4553   1.4631   1.4695   1.4729   1.4747   1.4787   1.4844   1.4893
  1.4980   1.4987   1.5089   1.5146   1.5178   1.5221   1.5247   1.5302
  1.5332   1.5359   1.5457   1.5469   1.5537   1.5602   1.5612   1.5697
  1.5717   1.5763   1.5786   1.5847   1.5911   1.5945   1.6012   1.6040
  1.6063   1.6095   1.6124   1.6149   1.6183   1.6234   1.6271   1.6297
  1.6369   1.6389   1.6417   1.6436   1.6508   1.6550   1.6604   1.6619
  1.6639   1.6710   1.6749   1.6807   1.6858   1.6915   1.6960   1.6975
  1.7034   1.7042   1.7109   1.7184   1.7215   1.7240   1.7276   1.7322
  1.7368   1.7391   1.7413   1.7441   1.7510   1.7529   1.7557   1.7583
  1.7624   1.7667   1.7726   1.7771   1.7813   1.7838   1.7878   1.7956
  1.7985   1.7992   1.8062   1.8086   1.8148   1.8206   1.8219   1.8232
  1.8287   1.8348   1.8369   1.8391   1.8457   1.8517   1.8530   1.8587
  1.8590   1.8629   1.8662   1.8714   1.8772   1.8827   1.8868   1.8908
  1.8927   1.8989   1.9033   1.9060   1.9094   1.9126   1.9222   1.9254
  1.9290   1.9324   1.9374   1.9457   1.9489   1.9536   1.9573   1.9635
  1.9668   1.9675   1.9777   1.9806   1.9825   1.9837   1.9860   1.9918
  1.9941   1.9976   2.0047   2.0063   2.0128   2.0164   2.0209   2.0290
  2.0309   2.0327   2.0346   2.0382   2.0411   2.0464   2.0484   2.0535
  2.0542   2.0610   2.0678   2.0726   2.0769   2.0784   2.0825   2.0848
  2.0854   2.0942   2.0987   2.1045   2.1064   2.1068   2.1121   2.1158
  2.1211   2.1266   2.1291   2.1346   2.1364   2.1385   2.1455   2.1490
  2.1519   2.1562   2.1570   2.1627   2.1680   2.1720   2.1750   2.1788
  2.1854   2.1896   2.1953   2.1990   2.2007   2.2126   2.2154   2.2200
  2.2257   2.2308   2.2359   2.2378   2.2406   2.2449   2.2525   2.2566
  2.2603   2.2625   2.2695   2.2794   2.2885   2.2906   2.2926   2.2995
  2.3047   2.3069   2.3130   2.3190   2.3235   2.3256   2.3338   2.3383
  2.3400   2.3439   2.3448   2.3490   2.3558   2.3607   2.3685   2.3711
  2.3781   2.3850   2.3876   2.3967   2.3988   2.4072   2.4114   2.4169
  2.4221   2.4278   2.4305   2.4329   2.4419   2.4507   2.4624   2.4640
  2.4748   2.4770   2.4859   2.4892   2.4925   2.4960   2.4991   2.5047
  2.5138   2.5217   2.5259   2.5312   2.5365   2.5416   2.5485   2.5532
  2.5600   2.5610   2.5683   2.5728   2.5809   2.5874   2.5985   2.6023
  2.6066   2.6093   2.6200   2.6257   2.6334   2.6359   2.6368   2.6453
  2.6510   2.6651   2.6709   2.6726   2.6777   2.6850   2.6912   2.6973
  2.7035   2.7200   2.7220   2.7233   2.7307   2.7469   2.7517   2.7546
  2.7592   2.7649   2.7710   2.7762   2.7800   2.7907   2.7927   2.7958
  2.8016   2.8113   2.8191   2.8302   2.8425   2.8451   2.8531   2.8572
  2.8602   2.8825   2.8834   2.8931   2.8968   2.9044   2.9068   2.9226
  2.9319   2.9419   2.9554   2.9626   2.9704   2.9732   2.9779   2.9846
  3.0010   3.0061   3.0194   3.0302   3.0351   3.0498   3.0673   3.0761
  3.0894   3.1017   3.1145   3.1272   3.1282   3.1314   3.1508   3.1547
  3.1778   3.2038   3.2270   3.2457   3.2765   3.2898   3.3377   3.3453
  3.3700   3.3790   3.3896   3.4060   3.4175   3.4334   3.4695   3.4890
  3.5035   3.5078   3.5181   3.5252   3.5394   3.5440   3.5510   3.5575
  3.5612   3.5693   3.5768   3.5812   3.5859   3.5904   3.5986   3.6009
  3.6027   3.6142   3.6181   3.6269   3.6301   3.6419   3.6472   3.6533
  3.6606   3.6674   3.6747   3.6898   3.6904   3.7040   3.7093   3.7259
  3.7385   3.7502   3.7572   3.7633   3.7713   3.7792   3.8001   3.8086
  3.8188   3.8214   3.8350   3.8493   3.8675   3.8929   3.8980   3.9048
  3.9092   3.9220   3.9369   3.9514   3.9632   3.9853   3.9921   4.0021
  4.0336   4.0398   4.0576   4.0660   4.0855   4.1072   4.1271   4.1560
  4.1790   4.1982   4.2334   4.2414   4.2959   4.3182   4.3751   4.4275
  4.5080   4.5625   4.6072   4.6287
 
 Beta MOs
 -- Occupied --
******** -30.1441 -26.0144 -26.0130 -26.0123 -19.2153 -19.2134 -19.2129
-19.2102 -19.2037 -19.2008 -19.1869 -19.1695 -19.1670 -19.1649 -19.1635
-14.4928 -14.4905 -14.4193 -14.4157 -10.3709 -10.3701 -10.3695 -10.3610
-10.3493 -10.3476 -10.3347 -10.2951 -10.2923 -10.2873 -10.2842 -10.2647
-10.2643 -10.2634 -10.2543 -10.2465 -10.2460 -10.2439 -10.2411 -10.2363
-10.2362  -3.5115  -2.2728  -2.2702  -2.2695  -1.1709  -1.1683  -1.1237
 -1.1182  -1.1129  -1.1100  -1.0960  -1.0943  -1.0913  -1.0270  -1.0246
 -1.0005  -0.9964  -0.9398  -0.9355  -0.8803  -0.8772  -0.8605  -0.8448
 -0.8330  -0.8159  -0.8068  -0.7980  -0.7766  -0.7639  -0.7236  -0.7169
 -0.6795  -0.6679  -0.6502  -0.6381  -0.6297  -0.6131  -0.6111  -0.5999
 -0.5976  -0.5872  -0.5777  -0.5723  -0.5705  -0.5654  -0.5599  -0.5550
 -0.5506  -0.5498  -0.5450  -0.5300  -0.5269  -0.5224  -0.5165  -0.5136
 -0.5119  -0.5025  -0.4982  -0.4884  -0.4875  -0.4849  -0.4831  -0.4809
 -0.4786  -0.4735  -0.4707  -0.4695  -0.4677  -0.4664  -0.4627  -0.4607
 -0.4543  -0.4507  -0.4434  -0.4409  -0.4387  -0.4339  -0.4247  -0.4233
 -0.4186  -0.4050  -0.3982  -0.3938  -0.3927  -0.3871  -0.3867  -0.3835
 -0.3786  -0.3782  -0.3765  -0.3683  -0.3622  -0.3578  -0.3353  -0.3313
 -0.3267  -0.3232  -0.3198  -0.3118  -0.3099  -0.3088  -0.3064  -0.3029
 -0.2765  -0.2733  -0.2707
 -- Virtual --
 -0.0458  -0.0410  -0.0388   0.0052   0.0060   0.0126   0.0187   0.0193
  0.0203   0.0281   0.0293   0.0314   0.0346   0.0350   0.0386   0.0452
  0.0465   0.0467   0.0482   0.0498   0.0553   0.0585   0.0590   0.0633
  0.0648   0.0658   0.0664   0.0688   0.0696   0.0708   0.0732   0.0744
  0.0771   0.0805   0.0812   0.0853   0.0874   0.0886   0.0908   0.0912
  0.0924   0.0931   0.0951   0.0982   0.0998   0.1019   0.1045   0.1077
  0.1089   0.1118   0.1125   0.1142   0.1185   0.1196   0.1216   0.1236
  0.1256   0.1264   0.1292   0.1308   0.1331   0.1332   0.1345   0.1358
  0.1370   0.1384   0.1396   0.1431   0.1435   0.1443   0.1475   0.1494
  0.1511   0.1513   0.1542   0.1570   0.1573   0.1602   0.1628   0.1640
  0.1649   0.1662   0.1669   0.1713   0.1727   0.1742   0.1764   0.1766
  0.1793   0.1830   0.1834   0.1837   0.1883   0.1886   0.1893   0.1925
  0.1939   0.1948   0.1966   0.2001   0.2009   0.2041   0.2057   0.2074
  0.2079   0.2104   0.2117   0.2133   0.2152   0.2169   0.2208   0.2218
  0.2225   0.2256   0.2279   0.2302   0.2328   0.2338   0.2354   0.2366
  0.2374   0.2401   0.2416   0.2434   0.2439   0.2462   0.2465   0.2506
  0.2523   0.2541   0.2569   0.2584   0.2592   0.2612   0.2627   0.2649
  0.2658   0.2677   0.2702   0.2707   0.2730   0.2749   0.2767   0.2781
  0.2815   0.2831   0.2852   0.2866   0.2885   0.2909   0.2938   0.2941
  0.2956   0.2970   0.2984   0.3000   0.3027   0.3039   0.3051   0.3059
  0.3071   0.3099   0.3122   0.3133   0.3145   0.3153   0.3170   0.3177
  0.3193   0.3220   0.3250   0.3261   0.3275   0.3291   0.3322   0.3345
  0.3355   0.3364   0.3390   0.3400   0.3408   0.3446   0.3462   0.3475
  0.3484   0.3498   0.3522   0.3549   0.3557   0.3565   0.3580   0.3594
  0.3640   0.3646   0.3675   0.3678   0.3696   0.3730   0.3745   0.3776
  0.3794   0.3823   0.3836   0.3851   0.3855   0.3892   0.3907   0.3923
  0.3968   0.3976   0.3999   0.4043   0.4054   0.4069   0.4083   0.4109
  0.4131   0.4139   0.4148   0.4171   0.4182   0.4232   0.4257   0.4263
  0.4274   0.4286   0.4334   0.4358   0.4369   0.4384   0.4396   0.4424
  0.4466   0.4477   0.4499   0.4511   0.4530   0.4557   0.4570   0.4584
  0.4609   0.4641   0.4657   0.4671   0.4692   0.4698   0.4728   0.4749
  0.4771   0.4775   0.4817   0.4847   0.4873   0.4903   0.4924   0.4948
  0.4971   0.5017   0.5027   0.5043   0.5048   0.5071   0.5081   0.5116
  0.5135   0.5185   0.5194   0.5219   0.5228   0.5232   0.5270   0.5279
  0.5311   0.5333   0.5356   0.5387   0.5407   0.5425   0.5450   0.5468
  0.5486   0.5516   0.5533   0.5600   0.5632   0.5638   0.5655   0.5665
  0.5675   0.5718   0.5728   0.5744   0.5752   0.5789   0.5825   0.5829
  0.5856   0.5886   0.5906   0.5927   0.5970   0.6000   0.6013   0.6042
  0.6079   0.6086   0.6092   0.6121   0.6132   0.6158   0.6188   0.6200
  0.6210   0.6241   0.6254   0.6308   0.6312   0.6330   0.6344   0.6372
  0.6391   0.6408   0.6439   0.6477   0.6501   0.6515   0.6535   0.6546
  0.6582   0.6601   0.6624   0.6634   0.6673   0.6674   0.6708   0.6725
  0.6756   0.6771   0.6805   0.6814   0.6822   0.6869   0.6893   0.6905
  0.6951   0.6984   0.6996   0.7017   0.7056   0.7090   0.7104   0.7116
  0.7145   0.7151   0.7164   0.7193   0.7247   0.7259   0.7263   0.7275
  0.7308   0.7355   0.7364   0.7412   0.7422   0.7452   0.7484   0.7496
  0.7516   0.7532   0.7545   0.7563   0.7602   0.7612   0.7619   0.7680
  0.7701   0.7724   0.7733   0.7763   0.7801   0.7830   0.7840   0.7872
  0.7909   0.7930   0.7945   0.7959   0.7967   0.7986   0.8006   0.8026
  0.8047   0.8066   0.8088   0.8128   0.8141   0.8182   0.8223   0.8242
  0.8282   0.8299   0.8318   0.8335   0.8355   0.8384   0.8422   0.8444
  0.8466   0.8486   0.8517   0.8565   0.8577   0.8605   0.8625   0.8649
  0.8674   0.8706   0.8741   0.8764   0.8783   0.8789   0.8865   0.8868
  0.8909   0.8926   0.8944   0.8980   0.8994   0.9036   0.9085   0.9096
  0.9114   0.9134   0.9168   0.9189   0.9252   0.9275   0.9312   0.9331
  0.9346   0.9410   0.9425   0.9453   0.9509   0.9533   0.9582   0.9597
  0.9645   0.9663   0.9696   0.9712   0.9783   0.9833   0.9846   0.9887
  0.9918   0.9930   0.9958   0.9971   1.0013   1.0042   1.0075   1.0099
  1.0159   1.0213   1.0221   1.0242   1.0283   1.0358   1.0361   1.0387
  1.0422   1.0468   1.0473   1.0498   1.0570   1.0606   1.0650   1.0690
  1.0733   1.0771   1.0800   1.0870   1.0877   1.0915   1.0950   1.1010
  1.1044   1.1062   1.1088   1.1125   1.1169   1.1194   1.1207   1.1269
  1.1283   1.1352   1.1355   1.1400   1.1427   1.1436   1.1467   1.1499
  1.1595   1.1622   1.1655   1.1698   1.1708   1.1766   1.1833   1.1867
  1.1901   1.1964   1.2017   1.2042   1.2046   1.2076   1.2150   1.2175
  1.2194   1.2235   1.2274   1.2281   1.2304   1.2312   1.2437   1.2485
  1.2536   1.2543   1.2613   1.2656   1.2704   1.2717   1.2732   1.2778
  1.2834   1.2863   1.2916   1.2996   1.3020   1.3035   1.3093   1.3101
  1.3141   1.3148   1.3192   1.3224   1.3253   1.3316   1.3349   1.3364
  1.3405   1.3456   1.3500   1.3536   1.3548   1.3572   1.3595   1.3652
  1.3661   1.3738   1.3756   1.3808   1.3812   1.3864   1.3912   1.3938
  1.3979   1.4008   1.4078   1.4117   1.4164   1.4253   1.4260   1.4324
  1.4369   1.4424   1.4470   1.4522   1.4535   1.4571   1.4649   1.4726
  1.4747   1.4761   1.4801   1.4872   1.4930   1.5000   1.5009   1.5110
  1.5164   1.5207   1.5241   1.5260   1.5324   1.5354   1.5376   1.5487
  1.5493   1.5551   1.5617   1.5630   1.5713   1.5746   1.5793   1.5811
  1.5865   1.5941   1.5966   1.6051   1.6060   1.6084   1.6120   1.6152
  1.6171   1.6214   1.6251   1.6305   1.6319   1.6394   1.6412   1.6431
  1.6470   1.6552   1.6581   1.6634   1.6653   1.6662   1.6733   1.6812
  1.6830   1.6897   1.6948   1.6986   1.7000   1.7057   1.7066   1.7154
  1.7211   1.7231   1.7268   1.7312   1.7354   1.7392   1.7415   1.7427
  1.7465   1.7521   1.7563   1.7587   1.7618   1.7676   1.7692   1.7744
  1.7798   1.7858   1.7865   1.7889   1.7986   1.8003   1.8010   1.8075
  1.8116   1.8161   1.8222   1.8239   1.8284   1.8303   1.8360   1.8390
  1.8416   1.8493   1.8545   1.8556   1.8601   1.8617   1.8658   1.8689
  1.8758   1.8789   1.8851   1.8914   1.8938   1.8986   1.9008   1.9056
  1.9085   1.9131   1.9148   1.9258   1.9276   1.9317   1.9348   1.9400
  1.9482   1.9536   1.9553   1.9600   1.9654   1.9705   1.9743   1.9805
  1.9823   1.9841   1.9860   1.9876   1.9931   1.9960   2.0007   2.0065
  2.0096   2.0163   2.0187   2.0236   2.0318   2.0339   2.0346   2.0370
  2.0398   2.0439   2.0486   2.0542   2.0553   2.0559   2.0639   2.0698
  2.0747   2.0788   2.0812   2.0855   2.0859   2.0897   2.0976   2.1013
  2.1068   2.1082   2.1102   2.1141   2.1176   2.1227   2.1293   2.1314
  2.1373   2.1393   2.1412   2.1487   2.1514   2.1551   2.1585   2.1602
  2.1667   2.1691   2.1766   2.1793   2.1846   2.1883   2.1934   2.1967
  2.2036   2.2052   2.2159   2.2189   2.2220   2.2277   2.2328   2.2373
  2.2403   2.2428   2.2467   2.2543   2.2602   2.2631   2.2656   2.2729
  2.2815   2.2905   2.2955   2.2970   2.3014   2.3078   2.3105   2.3164
  2.3220   2.3267   2.3316   2.3379   2.3399   2.3424   2.3467   2.3481
  2.3524   2.3601   2.3626   2.3709   2.3734   2.3799   2.3881   2.3909
  2.4000   2.4044   2.4113   2.4126   2.4233   2.4250   2.4319   2.4334
  2.4352   2.4452   2.4528   2.4639   2.4662   2.4768   2.4832   2.4877
  2.4906   2.4957   2.4979   2.5014   2.5061   2.5149   2.5237   2.5298
  2.5334   2.5389   2.5452   2.5505   2.5551   2.5621   2.5646   2.5733
  2.5749   2.5822   2.5893   2.6006   2.6045   2.6080   2.6111   2.6216
  2.6285   2.6342   2.6379   2.6395   2.6466   2.6527   2.6668   2.6725
  2.6749   2.6785   2.6867   2.6967   2.6995   2.7053   2.7215   2.7263
  2.7289   2.7337   2.7477   2.7533   2.7565   2.7605   2.7677   2.7724
  2.7779   2.7827   2.7922   2.7939   2.7976   2.8048   2.8135   2.8229
  2.8313   2.8435   2.8470   2.8548   2.8581   2.8613   2.8841   2.8888
  2.8956   2.8982   2.9057   2.9094   2.9295   2.9341   2.9468   2.9593
  2.9637   2.9740   2.9779   2.9845   2.9867   3.0029   3.0097   3.0232
  3.0330   3.0375   3.0527   3.0773   3.0954   3.1033   3.1074   3.1163
  3.1304   3.1311   3.1408   3.1529   3.1613   3.1892   3.2063   3.2291
  3.2481   3.2787   3.2940   3.3417   3.3494   3.3789   3.3817   3.3941
  3.4093   3.4207   3.4383   3.4716   3.4900   3.5063   3.5084   3.5194
  3.5280   3.5439   3.5453   3.5560   3.5641   3.5656   3.5702   3.5794
  3.5834   3.5911   3.5922   3.6005   3.6065   3.6088   3.6152   3.6237
  3.6295   3.6335   3.6495   3.6521   3.6597   3.6703   3.6732   3.6813
  3.6930   3.6980   3.7112   3.7208   3.7348   3.7449   3.7592   3.7634
  3.7674   3.7828   3.7845   3.8114   3.8207   3.8272   3.8378   3.8458
  3.8547   3.8770   3.9050   3.9072   3.9141   3.9270   3.9278   3.9481
  3.9657   3.9816   3.9961   4.0115   4.0270   4.0489   4.0621   4.0864
  4.0952   4.1085   4.1401   4.1522   4.1866   4.2185   4.2279   4.2637
  4.3148   4.3260   4.3474   4.4214   4.4782   4.5471   4.6502   4.7148
  4.7300
 --------------------------------------------------------------
 
          Ground-State Mulliken Net Atomic Charges

     Atom                 Charge (a.u.)    Spin (a.u.)
  --------------------------------------------------------
      1 N                     1.285417       0.019788
      2 C                     1.280966      -0.002139
      3 H                    -0.668417       0.000357
      4 N                     0.014275       0.007179
      5 H                    -0.050065       0.000198
      6 C                     0.947201      -0.000914
      7 O                    -0.888693       0.000056
      8 C                    -0.717932      -0.001836
      9 O                    -0.778860       0.082841
     10 C                    -0.934158      -0.014704
     11 C                     1.626880       0.004771
     12 H                    -0.361200       0.000306
     13 H                    -0.150372       0.000382
     14 H                    -0.436720       0.000271
     15 C                     2.713262       0.039747
     16 H                    -1.468700      -0.000710
     17 C                    -0.528058      -0.033369
     18 C                     1.129957       0.010206
     19 H                    -0.601233       0.000910
     20 H                    -0.371805      -0.000557
     21 C                     0.467533       0.003038
     22 O                    -0.934939       0.000104
     23 N                     0.174576      -0.001009
     24 H                    -0.000331       0.000417
     25 C                     1.023395       0.000035
     26 O                    -0.936265      -0.000016
     27 N                     1.040343       0.013834
     28 C                    -1.079491      -0.014042
     29 C                     1.665160       0.003542
     30 H                    -0.513346      -0.000027
     31 H                    -0.134869       0.000510
     32 H                    -0.153193      -0.000370
     33 C                     1.250878      -0.000999
     34 H                    -0.690750       0.000768
     35 H                    -0.634364       0.000923
     36 C                     1.272740       0.000631
     37 H                    -0.598463       0.000259
     38 H                    -0.622368      -0.000046
     39 C                     1.190770       0.001463
     40 H                    -0.798273       0.001438
     41 H                    -0.615268       0.000002
     42 C                     1.117566       0.000054
     43 H                    -0.438740      -0.000092
     44 H                    -0.562944       0.000125
     45 C                     0.993131       0.000807
     46 H                    -0.674787      -0.000028
     47 C                     1.276636       0.000117
     48 H                    -0.456636      -0.000092
     49 H                    -0.502887       0.000202
     50 C                     0.977831       0.001044
     51 H                    -0.621547       0.001225
     52 H                    -0.764117       0.000282
     53 C                     1.931095      -0.001221
     54 H                    -0.539430      -0.000565
     55 H                    -0.649351      -0.000052
     56 C                     0.510976       0.002894
     57 H                    -1.005636       0.001865
     58 H                    -0.585231      -0.000085
     59 O                    -0.896463       0.000287
     60 O                    -0.908596       0.000001
     61 O                    -0.633541       0.127622
     62 Fe                    2.827747       4.221809
     63 O                    -1.234156       0.158352
     64 O                    -0.715291       0.090454
     65 O                    -1.164242       0.179594
     66 O                    -0.696610       0.092161
  --------------------------------------------------------
  Sum of atomic charges =    -2.000000
  Sum of spin   charges =     5.000000

 -----------------------------------------------------------------
                    Cartesian Multipole Moments
 -----------------------------------------------------------------
    Charge (ESU x 10^10)
                -9.6064
    Dipole Moment (Debye)
         X      -2.3537      Y      17.7494      Z      -1.7686
       Tot      17.9919
    Quadrupole Moments (Debye-Ang)
        XX    -534.5608     XY     -11.3317     YY    -259.7318
        XZ      82.2375     YZ      -8.8674     ZZ    -257.7637
    Octopole Moments (Debye-Ang^2)
       XXX    -127.2281    XXY     711.0442    XYY      71.7693
       YYY     172.8674    XXZ    -117.1304    XYZ     -69.0293
       YYZ      50.7823    XZZ     -10.5136    YZZ      96.4485
       ZZZ     172.8591
    Hexadecapole Moments (Debye-Ang^3)
      XXXX  -33819.9293   XXXY      58.8925   XXYY   -4871.7308
      XYYY       1.1833   YYYY   -5310.9203   XXXZ    3942.6306
      XXYZ     309.2518   XYYZ     655.7621   YYYZ     -44.1839
      XXZZ   -4200.4525   XYZZ     115.4181   YYZZ   -1520.7527
      XZZZ    1246.6424   YZZZ     -69.4411   ZZZZ   -3182.7652
 -----------------------------------------------------------------
 Total job time:  239227.01s(wall), 4238505.29s(cpu) 
 Sun Aug 13 03:56:39 2023

        *************************************************************
        *                                                           *
        *  Thank you very much for using Q-Chem.  Have a nice day.  *
        *                                                           *
        *************************************************************


