
Running Job 1 of 1 C_FeABstar_enol_ctL_N_3sexet_SkS_b3lypD3bj_ccpVDZ_pcmH2O_opt.in
qchem C_FeABstar_enol_ctL_N_3sexet_SkS_b3lypD3bj_ccpVDZ_pcmH2O_opt.in_2568816.0 /data/scratch/C_FeABstar_enol_ctL_N_3sexet_SkS_b3lypD3bj_ccpVDZ_pcmH2O_opt20240124104225/ 0
/opt/qchem/6.0.1/exe/qcprog.exe_s C_FeABstar_enol_ctL_N_3sexet_SkS_b3lypD3bj_ccpVDZ_pcmH2O_opt.in_2568816.0 /data/scratch/C_FeABstar_enol_ctL_N_3sexet_SkS_b3lypD3bj_ccpVDZ_pcmH2O_opt20240124104225/
                  Welcome to Q-Chem
     A Quantum Leap Into The Future Of Chemistry


 Q-Chem 6.0, Q-Chem, Inc., Pleasanton, CA (2022)

 E. Epifanovsky,  A. T. B. Gilbert,  Xintian Feng,  Joonho Lee,  Yuezhi Mao,  
 N. Mardirossian,  P. Pokhilko,  A. White,  M. Wormit,  M. P. Coons,  
 A. L. Dempwolff,  Zhengting Gan,  D. Hait,  P. R. Horn,  L. D. Jacobson,  
 I. Kaliman,  J. Kussmann,  A. W. Lange,  Ka Un Lao,  D. S. Levine,  Jie Liu,  
 S. C. McKenzie,  A. F. Morrison,  K. Nanda,  F. Plasser,  D. R. Rehn,  
 M. L. Vidal,  Zhi-Qiang You,  Ying Zhu,  B. Alam,  B. Albrecht,  
 A. Aldossary,  E. Alguire,  J. H. Andersen,  V. Athavale,  D. Barton,  
 K. Begam,  A. Behn,  N. Bellonzi,  Y. A. Bernard,  E. J. Berquist,  
 H. Burton,  A. Carreras,  K. Carter-Fenk,  Romit Chakraborty,  
 Chandrima Chakravarty,  Junhan Chen,  A. D. Chien,  K. D. Closser,  
 V. Cofer-Shabica,  L. Cunha,  S. Dasgupta,  Jia Deng,  M. de Wergifosse,  
 M. Diedenhofen,  Hainam Do,  S. Ehlert,  Po-Tung Fang,  S. Fatehi,  
 Qingguo Feng,  T. Friedhoff,  B. Ganoe,  J. Gayvert,  Qinghui Ge,  
 G. Gidofalvi,  M. Goldey,  J. Gomes,  C. Gonzalez-Espinoza,  S. Gulania,  
 A. Gunina,  J. A. Gyamfi,  M. W. D. Hanson-Heine,  P. H. P. Harbach,  
 A. W. Hauser,  M. F. Herbst,  M. Hernandez Vera,  M. Hodecker,  
 Z. C. Holden,  S. Houck,  Xunkun Huang,  Kerwin Hui,  B. C. Huynh,  
 K. Ikeda,  M. Ivanov,  Hyunjun Ji,  Zuxin Jin,  Hanjie Jiang,  B. Kaduk,  
 S. Kaehler,  R. Kang,  K. Khistyaev,  Jaehoon Kim,  Yongbin Kim,  
 P. Klunzinger,  Z. Koczor-Benda,  Joong Hoon Koh,  D. Kosenkov,  
 Saikiran Kotaru,  L. Koulias,  T. Kowalczyk,  C. M. Krauter,  K. Kue,  
 A. Kunitsa,  T. Kus,  A. Landau,  K. V. Lawler,  D. Lefrancois,  S. Lehtola,  
 Rain Li,  Shaozhi Li,  Yi-Pei Li,  Jiashu Liang,  M. Liebenthal,  
 Hung-Hsuan Lin,  You-Sheng Lin,  Fenglai Liu,  Kuan-Yu Liu,  
 M. Loipersberger,  A. Luenser,  C. Malbon,  A. Manjanath,  P. Manohar,  
 E. Mansoor,  S. F. Manzer,  Shan-Ping Mao,  A. V. Marenich,  T. Markovich,  
 S. Mason,  F. Matz,  S. A. Maurer,  P. F. McLaughlin,  M. F. S. J. Menger,  
 J.-M. Mewes,  S. A. Mewes,  P. Morgante,  Mohammad Mostafanejad,  
 J. W. Mullinax,  K. J. Oosterbaan,  G. Paran,  V. Parravicini,  
 Alexander C. Paul,  Suranjan K. Paul,  F. Pavosevic,  Zheng Pei,  S. Prager,  
 E. I. Proynov,  E. Ramos,  B. Rana,  A. E. Rask,  A. Rettig,  R. M. Richard,  
 F. Rob,  E. Rossomme,  T. Scheele,  M. Scheurer,  M. Schneider,  
 P. E. Schneider,  N. Sergueev,  S. M. Sharada,  Hengyuan Shen,  
 W. Skomorowski,  D. W. Small,  C. J. Stein,  Yingli Su,  Yu-Chuan Su,  
 E. J. Sundstrom,  Zhen Tao,  J. Thirman,  Hung-Yi Tsai,  T. Tsuchimochi,  
 N. M. Tubman,  C. Utku,  S. P. Veccham,  O. Vydrov,  J. Wenzel,  
 Jonathan Wong,  J. Witte,  A. Yamada,  Chou-Hsun Yang,  Kun Yao,  
 S. Yeganeh,  S. R. Yost,  A. Zech,  F. Zeller,  Igor Ying Zhang,  
 Xing Zhang,  Yu Zhang,  D. Zuev,  A. Aspuru-Guzik,  A. T. Bell,  
 N. A. Besley,  K. B. Bravaya,  B. R. Brooks,  D. Casanova,  Jeng-Da Chai,  
 Hsing-Ta Chen,  S. Coriani,  C. J. Cramer,  A. E. DePrince, III,  
 R. A. DiStasio Jr.,  A. Dreuw,  B. D. Dunietz,  T. R. Furlani,  
 W. A. Goddard III,  S. Grimme,  S. Hammes-Schiffer,  T. Head-Gordon,  
 W. J. Hehre,  Chao-Ping Hsu,  T.-C. Jagau,  Yousung Jung,  A. Klamt,  
 Jing Kong,  D. S. Lambrecht,  Xiangyuan Li,  WanZhen Liang,  N. J. Mayhall,  
 C. W. McCurdy,  J. B. Neaton,  T. Neudecker,  C. Ochsenfeld,  
 J. A. Parkhill,  R. Peverati,  V. A. Rassolov,  Haisheng Ren,  Yihan Shao,  
 L. V. Slipchenko,  R. P. Steele,  J. E. Subotnik,  A. J. W. Thom,  
 A. Tkatchenko,  D. G. Truhlar,  T. Van Voorhis,  Fan Wang,  
 T. A. Wesolowski,  K. B. Whaley,  H. L. Woodcock III,  P. M. Zimmerman,  
 S. Faraji,  P. M. W. Gill,  M. Head-Gordon,  J. M. Herbert,  A. I. Krylov

 Contributors to earlier versions of Q-Chem not listed above: 
 R. D. Adamson,  B. Austin,  R. Baer,  J. Baker,  G. J. O. Beran,  
 K. Brandhorst,  S. T. Brown,  E. F. C. Byrd,  Arup K. Chakraborty,  
 G. K. L. Chan,  Chun-Min Chang,  Yunqing Chen,  C.-L. Cheng,  
 Siu Hung Chien,  D. M. Chipman,  D. L. Crittenden,  H. Dachsel,  
 R. J. Doerksen,  A. D. Dutoi,  R. G. Edgar,  J. Fosso-Tande,  
 L. Fusti-Molnar,  D. Ghosh,  A. Ghysels,  A. Golubeva-Zadorozhnaya,  
 J. Gonthier,  M. S. Gordon,  S. R. Gwaltney,  G. Hawkins,  J. E. Herr,  
 A. Heyden,  S. Hirata,  E. G. Hohenstein,  G. Kedziora,  F. J. Keil,  
 C. Kelley,  Jihan Kim,  R. A. King,  R. Z. Khaliullin,  P. P. Korambath,  
 W. Kurlancheek,  A. Laurent,  A. M. Lee,  M. S. Lee,  S. V. Levchenko,  
 Ching Yeh Lin,  D. Liotard,  E. Livshits,  R. C. Lochan,  I. Lotan,  
 L. A. Martinez-Martinez,  P. E. Maslen,  N. Nair,  D. P. O'Neill,  
 D. Neuhauser,  E. Neuscamman,  C. M. Oana,  R. Olivares-Amaya,  R. Olson,  
 T. M. Perrine,  B. Peters,  P. A. Pieniazek,  A. Prociuk,  Y. M. Rhee,  
 J. Ritchie,  M. A. Rohrdanz,  E. Rosta,  N. J. Russ,  H. F. Schaefer III,  
 M. W. Schmidt,  N. E. Schultz,  S. Sharma,  N. Shenvi,  C. D. Sherrill,  
 A. C. Simmonett,  A. Sodt,  T. Stein,  D. Stuck,  K. S. Thanthiriwatte,  
 V. Vanovschi,  L. Vogt,  Tao Wang,  A. Warshel,  M. A. Watson,  
 C. F. Williams,  Q. Wu,  X. Xu,  Jun Yang,  W. Zhang,  Yan Zhao

   Please cite Q-Chem as follows:
  "Software for the frontiers of quantum chemistry:
   An overview of developments in the Q-Chem 5 package"
   J. Chem. Phys. 155, 084801 (2021)
   https://doi.org/10.1063/5.0055522 (open access)

 Q-Chem 6.0.2 for Intel X86 EM64T Linux

 Parts of Q-Chem use Armadillo 9.900.5 (Nocturnal Misbehaviour).
 http://arma.sourceforge.net/

 Q-Chem begins on Wed Jan 24 10:42:26 2024  

 Host: 
0

     Scratch files written to /data/scratch/C_FeABstar_enol_ctL_N_3sexet_SkS_b3lypD3bj_ccpVDZ_pcmH2O_opt20240124104225//
 Dec722 |scratch|qcdevops|jenkins|workspace|build_RNUM 8907   
 Processing $rem in /opt/qchem/6.0.1/config/preferences:
 Processing $rem in /home/sgardner/.qchemrc:
 Symmetry turned off for PCM/SM12/SMD calculation

 Checking the input file for inconsistencies... 	...done.

--------------------------------------------------------------
User input:
--------------------------------------------------------------
$molecule
-2 6
N   -2.7027024    1.8666184   -1.5522462
C   -3.9189224   -1.0493607    1.4564839
H   -3.5939282   -0.6884629    2.4513187
N   -2.8280695   -1.8256556    0.9012260
H   -3.0200557   -2.7933781    0.6087033
C   -5.1356199   -1.9459256    1.6246899
O   -6.2517291   -1.4516936    2.1786893
C   -1.5861602   -1.3203213    0.4635987
O   -1.2926367    0.0074268    0.5621043
C   -2.3819737    2.7960956   -0.5975886
C   -3.3699011    3.9918868   -0.3202131
H   -3.9703888    4.3123341   -1.2186059
H   -4.1661803    3.7382825    0.4166479
C   -0.8086092   -2.2151055   -0.1592370
H   -1.0696628   -3.2869298   -0.0959168
C    0.2999704   -1.8551266   -1.0280634
C    1.0742669   -3.0401892   -1.6684694
H    0.8997390   -3.0474526   -2.7637530
H    0.7298475   -4.0551634   -1.3187893
C    2.5562239   -2.9925473   -1.3998158
O    3.3192097   -3.6593883   -2.0866101
N    3.0162658   -2.2715270   -0.3466771
H    2.3177360   -1.8100097    0.2413169
C    4.4998598   -1.6223383    1.4659598
O    5.5915684   -1.4408016    1.9751514
C    2.0541476    2.3475270   -1.2264822
N    2.3179775    1.6797423   -0.0693212
C    3.6405886    1.5764297    0.5918772
H    3.8985717    2.5214099    1.1110071
H    3.5378590    0.8224429    1.3787845
C    3.1297522    3.2059860   -1.9162746
H    3.8131569    2.6118809   -2.5623337
H    2.6978652    4.0306909   -2.5168036
C    4.8855516    1.1624591   -0.2584623
H    5.2576195    2.0602456   -0.7957410
H    5.7493182    0.9151655    0.4069216
C    4.6826006    0.0542302   -1.3094087
H    3.6325514    0.0146693   -1.6525100
H    5.2790587    0.3670707   -2.1994104
C    5.2272840   -1.3445273   -0.9546217
H    5.2589324   -1.9203449   -1.9052878
H    6.2839043   -1.2667107   -0.6077980
C    4.4067077   -2.1698867    0.0569184
H    4.8510209   -3.1872579    0.0977806
C   -5.1872564    1.2672607   -1.5362055
H   -5.6451099    1.9975897   -0.8345163
H   -5.9728529    1.0550318   -2.3053819
C   -3.9784382    1.8597866   -2.3053944
H   -4.2675323    2.8414216   -2.7631305
H   -3.8296517    1.2030538   -3.1867648
C   -4.8583040   -0.0523602   -0.7963935
H   -4.1753195   -0.6705840   -1.4159582
H   -5.8056477   -0.6134192   -0.6561583
C   -4.2859357    0.2093821    0.6148004
H   -3.4166718    0.8657495    0.5648785
H   -5.0500224    0.7852582    1.1814689
O   -5.1296487   -3.1149714    1.2607558
O    3.3918470   -1.4039690    2.2069542
O    0.6312560   -0.6603870   -1.2023526
Fe   -0.2436151    1.0406353   -0.6513734
O   -1.7557754    0.9405639   -1.9020257
O   -1.2260028    2.6928749   -0.1087606
O    0.9229988    2.1762456   -1.7122680
O    1.2552754    1.1422575    0.5804503
H    3.7848004    3.7162236   -1.1650162
H   -2.8758294    4.9377970   -0.0165028
$end

$rem
BASIS  =  gen
DFT_D  =  D3_BJ
GUI  =  2
JOB_TYPE  =  Optimization
METHOD  =  B3LYP
SCF_CONVERGENCE  =  8
SOLVENT_METHOD  =  PCM
GEOM_OPT_MAX_CYCLES = 200
$end

$pcm
THEORY  CPCM
$end

$solvent
DIELECTRIC  78.39
$end

$van_der_waals
26   2.44
$end

!----------------------------------------------------------------------
! Basis Set Exchange
! Basis set: cc-pVDZ
!----------------------------------------------------------------------

$rem
BASIS GEN
PURECART 11
$end

$basis
H     0
S   4   1.00
1.301000D+01           1.968500D-02
1.962000D+00           1.379770D-01
4.446000D-01           4.781480D-01
1.220000D-01           5.012400D-01
S   1   1.00
1.220000D-01           1.000000D+00
P   1   1.00
7.270000D-01           1.0000000
****
C     0
S   9   1.00
6.665000D+03           6.920000D-04
1.000000D+03           5.329000D-03
2.280000D+02           2.707700D-02
6.471000D+01           1.017180D-01
2.106000D+01           2.747400D-01
7.495000D+00           4.485640D-01
2.797000D+00           2.850740D-01
5.215000D-01           1.520400D-02
1.596000D-01          -3.191000D-03
S   9   1.00
6.665000D+03          -1.460000D-04
1.000000D+03          -1.154000D-03
2.280000D+02          -5.725000D-03
6.471000D+01          -2.331200D-02
2.106000D+01          -6.395500D-02
7.495000D+00          -1.499810D-01
2.797000D+00          -1.272620D-01
5.215000D-01           5.445290D-01
1.596000D-01           5.804960D-01
S   1   1.00
1.596000D-01           1.000000D+00
P   4   1.00
9.439000D+00           3.810900D-02
2.002000D+00           2.094800D-01
5.456000D-01           5.085570D-01
1.517000D-01           4.688420D-01
P   1   1.00
1.517000D-01           1.000000D+00
D   1   1.00
5.500000D-01           1.0000000
****
N     0
S   9   1.00
9.046000D+03           7.000000D-04
1.357000D+03           5.389000D-03
3.093000D+02           2.740600D-02
8.773000D+01           1.032070D-01
2.856000D+01           2.787230D-01
1.021000D+01           4.485400D-01
3.838000D+00           2.782380D-01
7.466000D-01           1.544000D-02
2.248000D-01          -2.864000D-03
S   9   1.00
9.046000D+03          -1.530000D-04
1.357000D+03          -1.208000D-03
3.093000D+02          -5.992000D-03
8.773000D+01          -2.454400D-02
2.856000D+01          -6.745900D-02
1.021000D+01          -1.580780D-01
3.838000D+00          -1.218310D-01
7.466000D-01           5.490030D-01
2.248000D-01           5.788150D-01
S   1   1.00
2.248000D-01           1.000000D+00
P   4   1.00
1.355000D+01           3.991900D-02
2.917000D+00           2.171690D-01
7.973000D-01           5.103190D-01
2.185000D-01           4.622140D-01
P   1   1.00
2.185000D-01           1.000000D+00
D   1   1.00
8.170000D-01           1.0000000
****
O     0
S   9   1.00
1.172000D+04           7.100000D-04
1.759000D+03           5.470000D-03
4.008000D+02           2.783700D-02
1.137000D+02           1.048000D-01
3.703000D+01           2.830620D-01
1.327000D+01           4.487190D-01
5.025000D+00           2.709520D-01
1.013000D+00           1.545800D-02
3.023000D-01          -2.585000D-03
S   9   1.00
1.172000D+04          -1.600000D-04
1.759000D+03          -1.263000D-03
4.008000D+02          -6.267000D-03
1.137000D+02          -2.571600D-02
3.703000D+01          -7.092400D-02
1.327000D+01          -1.654110D-01
5.025000D+00          -1.169550D-01
1.013000D+00           5.573680D-01
3.023000D-01           5.727590D-01
S   1   1.00
3.023000D-01           1.000000D+00
P   4   1.00
1.770000D+01           4.301800D-02
3.854000D+00           2.289130D-01
1.046000D+00           5.087280D-01
2.753000D-01           4.605310D-01
P   1   1.00
2.753000D-01           1.000000D+00
D   1   1.00
1.185000D+00           1.0000000
****
Fe     0
S   20   1.00
4.316265D+06           8.048803D-06
6.463424D+05           6.258306D-05
1.470897D+05           3.290239D-04
4.166152D+04           1.387355D-03
1.359077D+04           5.023256D-03
4.905750D+03           1.610140D-02
1.912746D+03           4.590034D-02
7.926043D+02           1.136154D-01
3.448065D+02           2.283869D-01
1.558999D+02           3.221159D-01
7.223091D+01           2.383661D-01
3.272506D+01           7.404667D-02
1.566762D+01           9.214197D-02
7.503483D+00           9.339790D-02
3.312223D+00           1.573965D-02
1.558471D+00          -4.186682D-04
6.839140D-01           5.376318D-05
1.467570D-01          -3.816654D-05
7.058300D-02           4.319603D-05
3.144900D-02          -3.401019D-06
S   20   1.00
4.316265D+06          -4.155954D-06
6.463424D+05          -3.231401D-05
1.470897D+05          -1.699525D-04
4.166152D+04          -7.171369D-04
1.359077D+04          -2.603625D-03
4.905750D+03          -8.399109D-03
1.912746D+03          -2.434109D-02
7.926043D+02          -6.251948D-02
3.448065D+02          -1.365929D-01
1.558999D+02          -2.312707D-01
7.223091D+01          -2.383734D-01
3.272506D+01           3.123837D-02
1.566762D+01           5.086818D-01
7.503483D+00           4.987695D-01
3.312223D+00           9.033552D-02
1.558471D+00          -6.005337D-03
6.839140D-01           2.312454D-04
1.467570D-01          -5.643680D-04
7.058300D-02           4.992260D-04
3.144900D-02          -1.015293D-04
S   20   1.00
4.316265D+06           9.532178D-07
6.463424D+05           7.414605D-06
1.470897D+05           3.898393D-05
4.166152D+04           1.647152D-04
1.359077D+04           5.985980D-04
4.905750D+03           1.942390D-03
1.912746D+03           5.687237D-03
7.926043D+02           1.501329D-02
3.448065D+02           3.452455D-02
1.558999D+02           6.495820D-02
7.223091D+01           7.716194D-02
3.272506D+01          -1.873411D-02
1.566762D+01          -3.009185D-01
7.503483D+00          -4.554661D-01
3.312223D+00           1.286463D-01
1.558471D+00           7.183316D-01
6.839140D-01           4.051743D-01
1.467570D-01           2.168227D-02
7.058300D-02          -8.343566D-03
3.144900D-02           3.658979D-03
S   20   1.00
4.316265D+06          -2.063008D-07
6.463424D+05          -1.604169D-06
1.470897D+05          -8.438437D-06
4.166152D+04          -3.563151D-05
1.359077D+04          -1.295998D-04
4.905750D+03          -4.201534D-04
1.912746D+03          -1.231954D-03
7.926043D+02          -3.248922D-03
3.448065D+02          -7.493717D-03
1.558999D+02          -1.410102D-02
7.223091D+01          -1.691600D-02
3.272506D+01           4.218996D-03
1.566762D+01           6.833810D-02
7.503483D+00           1.098201D-01
3.312223D+00          -4.009005D-02
1.558471D+00          -2.174739D-01
6.839140D-01          -2.465135D-01
1.467570D-01           2.731435D-01
7.058300D-02           5.748321D-01
3.144900D-02           3.012713D-01
S   20   1.00
4.316265D+06          -4.009367D-07
6.463424D+05          -3.189255D-06
1.470897D+05          -1.623079D-05
4.166152D+04          -7.157920D-05
1.359077D+04          -2.463958D-04
4.905750D+03          -8.544907D-04
1.912746D+03          -2.307593D-03
7.926043D+02          -6.728292D-03
3.448065D+02          -1.366165D-02
1.558999D+02          -3.062240D-02
7.223091D+01          -2.631137D-02
3.272506D+01          -9.760183D-03
1.566762D+01           1.801906D-01
7.503483D+00           1.529634D-01
3.312223D+00           5.505413D-02
1.558471D+00          -9.551364D-01
6.839140D-01           2.586813D-01
1.467570D-01           1.834049D+00
7.058300D-02          -9.333240D-01
3.144900D-02          -6.981605D-01
S   1   1.00
3.144900D-02           1.000000D+00
P   16   1.00
1.774569D+04           4.100000D-05
4.200721D+03           3.690000D-04
1.364429D+03           2.129000D-03
5.220806D+02           9.369000D-03
2.214595D+02           3.309700D-02
1.009096D+02           9.443100D-02
4.840115D+01           2.080770D-01
2.398536D+01           3.323330D-01
1.218250D+01           3.329870D-01
6.242298D+00           1.568430D-01
3.110944D+00           2.154900D-02
1.509958D+00          -2.095000D-03
7.108450D-01          -1.739000D-03
2.731900D-01          -3.000000D-04
1.042330D-01           2.900000D-05
3.829100D-02          -1.100000D-05
P   16   1.00
1.774569D+04          -1.500000D-05
4.200721D+03          -1.300000D-04
1.364429D+03          -7.510000D-04
5.220806D+02          -3.329000D-03
2.214595D+02          -1.191200D-02
1.009096D+02          -3.493300D-02
4.840115D+01          -7.998900D-02
2.398536D+01          -1.346360D-01
1.218250D+01          -1.385980D-01
6.242298D+00           3.027800D-02
3.110944D+00           3.332160D-01
1.509958D+00           4.561530D-01
7.108450D-01           2.850510D-01
2.731900D-01           4.614400D-02
1.042330D-01          -3.249000D-03
3.829100D-02           1.357000D-03
P   16   1.00
1.774569D+04           5.000000D-06
4.200721D+03           4.200000D-05
1.364429D+03           2.410000D-04
5.220806D+02           1.085000D-03
2.214595D+02           3.831000D-03
1.009096D+02           1.142300D-02
4.840115D+01           2.579200D-02
2.398536D+01           4.481800D-02
1.218250D+01           4.459800D-02
6.242298D+00          -1.117700D-02
3.110944D+00          -1.381340D-01
1.509958D+00          -1.882850D-01
7.108450D-01          -1.073990D-01
2.731900D-01           4.448630D-01
1.042330D-01           6.402390D-01
3.829100D-02           6.445700D-02
P   16   1.00
1.774569D+04           3.000000D-06
4.200721D+03           2.900000D-05
1.364429D+03           1.650000D-04
5.220806D+02           7.340000D-04
2.214595D+02           2.626000D-03
1.009096D+02           7.725000D-03
4.840115D+01           1.773300D-02
2.398536D+01           3.005500D-02
1.218250D+01           3.109400D-02
6.242298D+00          -1.004800D-02
3.110944D+00          -8.830600D-02
1.509958D+00          -1.298240D-01
7.108450D-01          -7.693700D-02
2.731900D-01           2.126610D-01
1.042330D-01           5.730610D-01
3.829100D-02           3.696510D-01
P   1   1.00
3.829100D-02           1.000000D+00
D   8   1.00
1.133440D+02           3.530000D-03
3.364140D+01           2.578400D-02
1.233100D+01           9.911900D-02
4.994780D+00           2.390730D-01
2.072800D+00           3.571990D-01
8.307530D-01           3.621880D-01
3.091780D-01           2.364610D-01
1.001300D-01           6.011800D-02
D   8   1.00
1.133440D+02          -3.890000D-03
3.364140D+01          -2.844200D-02
1.233100D+01          -1.124290D-01
4.994780D+00          -2.742570D-01
2.072800D+00          -3.155460D-01
8.307530D-01           5.710900D-02
3.091780D-01           5.636040D-01
1.001300D-01           3.846370D-01
D   1   1.00
1.001300D-01           1.000000D+00
F   2   1.00
3.224300D+00           4.222490D-01
7.758000D-01           7.714680D-01
****
$end


--------------------------------------------------------------
 Adding empirical dispersion correction 
 ----------------------------------------------------------------
 Doing -D3(BJ) with
 s6  =   1.00000
 s8  =   1.98890
 a1  =   0.39810
 a2  =   4.42110
 -D3 energy without 3body term =     -0.1544409785 hartrees
 ----------------------------------------------------------------
             Standard Nuclear Orientation (Angstroms)
    I     Atom           X                Y                Z
 ----------------------------------------------------------------
    1      N      -2.7027024000     1.8666184000    -1.5522462000
    2      C      -3.9189224000    -1.0493607000     1.4564839000
    3      H      -3.5939282000    -0.6884629000     2.4513187000
    4      N      -2.8280695000    -1.8256556000     0.9012260000
    5      H      -3.0200557000    -2.7933781000     0.6087033000
    6      C      -5.1356199000    -1.9459256000     1.6246899000
    7      O      -6.2517291000    -1.4516936000     2.1786893000
    8      C      -1.5861602000    -1.3203213000     0.4635987000
    9      O      -1.2926367000     0.0074268000     0.5621043000
   10      C      -2.3819737000     2.7960956000    -0.5975886000
   11      C      -3.3699011000     3.9918868000    -0.3202131000
   12      H      -3.9703888000     4.3123341000    -1.2186059000
   13      H      -4.1661803000     3.7382825000     0.4166479000
   14      C      -0.8086092000    -2.2151055000    -0.1592370000
   15      H      -1.0696628000    -3.2869298000    -0.0959168000
   16      C       0.2999704000    -1.8551266000    -1.0280634000
   17      C       1.0742669000    -3.0401892000    -1.6684694000
   18      H       0.8997390000    -3.0474526000    -2.7637530000
   19      H       0.7298475000    -4.0551634000    -1.3187893000
   20      C       2.5562239000    -2.9925473000    -1.3998158000
   21      O       3.3192097000    -3.6593883000    -2.0866101000
   22      N       3.0162658000    -2.2715270000    -0.3466771000
   23      H       2.3177360000    -1.8100097000     0.2413169000
   24      C       4.4998598000    -1.6223383000     1.4659598000
   25      O       5.5915684000    -1.4408016000     1.9751514000
   26      C       2.0541476000     2.3475270000    -1.2264822000
   27      N       2.3179775000     1.6797423000    -0.0693212000
   28      C       3.6405886000     1.5764297000     0.5918772000
   29      H       3.8985717000     2.5214099000     1.1110071000
   30      H       3.5378590000     0.8224429000     1.3787845000
   31      C       3.1297522000     3.2059860000    -1.9162746000
   32      H       3.8131569000     2.6118809000    -2.5623337000
   33      H       2.6978652000     4.0306909000    -2.5168036000
   34      C       4.8855516000     1.1624591000    -0.2584623000
   35      H       5.2576195000     2.0602456000    -0.7957410000
   36      H       5.7493182000     0.9151655000     0.4069216000
   37      C       4.6826006000     0.0542302000    -1.3094087000
   38      H       3.6325514000     0.0146693000    -1.6525100000
   39      H       5.2790587000     0.3670707000    -2.1994104000
   40      C       5.2272840000    -1.3445273000    -0.9546217000
   41      H       5.2589324000    -1.9203449000    -1.9052878000
   42      H       6.2839043000    -1.2667107000    -0.6077980000
   43      C       4.4067077000    -2.1698867000     0.0569184000
   44      H       4.8510209000    -3.1872579000     0.0977806000
   45      C      -5.1872564000     1.2672607000    -1.5362055000
   46      H      -5.6451099000     1.9975897000    -0.8345163000
   47      H      -5.9728529000     1.0550318000    -2.3053819000
   48      C      -3.9784382000     1.8597866000    -2.3053944000
   49      H      -4.2675323000     2.8414216000    -2.7631305000
   50      H      -3.8296517000     1.2030538000    -3.1867648000
   51      C      -4.8583040000    -0.0523602000    -0.7963935000
   52      H      -4.1753195000    -0.6705840000    -1.4159582000
   53      H      -5.8056477000    -0.6134192000    -0.6561583000
   54      C      -4.2859357000     0.2093821000     0.6148004000
   55      H      -3.4166718000     0.8657495000     0.5648785000
   56      H      -5.0500224000     0.7852582000     1.1814689000
   57      O      -5.1296487000    -3.1149714000     1.2607558000
   58      O       3.3918470000    -1.4039690000     2.2069542000
   59      O       0.6312560000    -0.6603870000    -1.2023526000
   60      Fe     -0.2436151000     1.0406353000    -0.6513734000
   61      O      -1.7557754000     0.9405639000    -1.9020257000
   62      O      -1.2260028000     2.6928749000    -0.1087606000
   63      O       0.9229988000     2.1762456000    -1.7122680000
   64      O       1.2552754000     1.1422575000     0.5804503000
   65      H       3.7848004000     3.7162236000    -1.1650162000
   66      H      -2.8758294000     4.9377970000    -0.0165028000
 ----------------------------------------------------------------
 Nuclear Repulsion Energy =        5338.68577125 hartrees
 There are      152 alpha and      147 beta electrons
 Requested basis set is non-standard
 There are 318 shells and 692 basis functions

 Total QAlloc Memory Limit   8000 MB
 Mega-Array Size       188 MB
 MEM_STATIC part       192 MB

 -----------------------------------------------------------------------
                STARTING GEOMETRY OPTIMIZER USING LIBOPT3
                by Peter F. McLaughlin, Yu Zhang, Evgeny Epifanovsky
 -----------------------------------------------------------------------

              Initial Energy and Gradient Calculation
   -- Checking Topology for Ill-Behaving Coordinates --

 -------------------------------------------
   Coordinate       |  Removed | Additions 
 -------------------------------------------
	Bonds                     0          0
	Angles                    3          0
	Torsions                  6          6
	Co-Linear Type5s          0          6
	Co-Linear Type6s          0          6
 -------------------------------------------

 ** Ill-Behaving Topology Definitions (No action needed.) **

  Ill-Defined Angles Removed: 
   9  60  63,  59  60  62,  61  60  64

  Ill-Defined Torsions Removed: 
   1  61  60  64,   8   9  60  63,   9  60  63  26,  16  59  60  62,  59  60  62  10
  61  60  64  27

     Done Checking Topology
 Adding empirical dispersion correction 
 ----------------------------------------------------------------
 Doing -D3(BJ) with
 s6  =   1.00000
 s8  =   1.98890
 a1  =   0.39810
 a2  =   4.42110
 -D3 energy without 3body term =     -0.1544409785 hartrees
 ----------------------------------------------------------------
             Standard Nuclear Orientation (Angstroms)
    I     Atom           X                Y                Z
 ----------------------------------------------------------------
    1      N      -2.7027024000     1.8666184000    -1.5522462000
    2      C      -3.9189224000    -1.0493607000     1.4564839000
    3      H      -3.5939282000    -0.6884629000     2.4513187000
    4      N      -2.8280695000    -1.8256556000     0.9012260000
    5      H      -3.0200557000    -2.7933781000     0.6087033000
    6      C      -5.1356199000    -1.9459256000     1.6246899000
    7      O      -6.2517291000    -1.4516936000     2.1786893000
    8      C      -1.5861602000    -1.3203213000     0.4635987000
    9      O      -1.2926367000     0.0074268000     0.5621043000
   10      C      -2.3819737000     2.7960956000    -0.5975886000
   11      C      -3.3699011000     3.9918868000    -0.3202131000
   12      H      -3.9703888000     4.3123341000    -1.2186059000
   13      H      -4.1661803000     3.7382825000     0.4166479000
   14      C      -0.8086092000    -2.2151055000    -0.1592370000
   15      H      -1.0696628000    -3.2869298000    -0.0959168000
   16      C       0.2999704000    -1.8551266000    -1.0280634000
   17      C       1.0742669000    -3.0401892000    -1.6684694000
   18      H       0.8997390000    -3.0474526000    -2.7637530000
   19      H       0.7298475000    -4.0551634000    -1.3187893000
   20      C       2.5562239000    -2.9925473000    -1.3998158000
   21      O       3.3192097000    -3.6593883000    -2.0866101000
   22      N       3.0162658000    -2.2715270000    -0.3466771000
   23      H       2.3177360000    -1.8100097000     0.2413169000
   24      C       4.4998598000    -1.6223383000     1.4659598000
   25      O       5.5915684000    -1.4408016000     1.9751514000
   26      C       2.0541476000     2.3475270000    -1.2264822000
   27      N       2.3179775000     1.6797423000    -0.0693212000
   28      C       3.6405886000     1.5764297000     0.5918772000
   29      H       3.8985717000     2.5214099000     1.1110071000
   30      H       3.5378590000     0.8224429000     1.3787845000
   31      C       3.1297522000     3.2059860000    -1.9162746000
   32      H       3.8131569000     2.6118809000    -2.5623337000
   33      H       2.6978652000     4.0306909000    -2.5168036000
   34      C       4.8855516000     1.1624591000    -0.2584623000
   35      H       5.2576195000     2.0602456000    -0.7957410000
   36      H       5.7493182000     0.9151655000     0.4069216000
   37      C       4.6826006000     0.0542302000    -1.3094087000
   38      H       3.6325514000     0.0146693000    -1.6525100000
   39      H       5.2790587000     0.3670707000    -2.1994104000
   40      C       5.2272840000    -1.3445273000    -0.9546217000
   41      H       5.2589324000    -1.9203449000    -1.9052878000
   42      H       6.2839043000    -1.2667107000    -0.6077980000
   43      C       4.4067077000    -2.1698867000     0.0569184000
   44      H       4.8510209000    -3.1872579000     0.0977806000
   45      C      -5.1872564000     1.2672607000    -1.5362055000
   46      H      -5.6451099000     1.9975897000    -0.8345163000
   47      H      -5.9728529000     1.0550318000    -2.3053819000
   48      C      -3.9784382000     1.8597866000    -2.3053944000
   49      H      -4.2675323000     2.8414216000    -2.7631305000
   50      H      -3.8296517000     1.2030538000    -3.1867648000
   51      C      -4.8583040000    -0.0523602000    -0.7963935000
   52      H      -4.1753195000    -0.6705840000    -1.4159582000
   53      H      -5.8056477000    -0.6134192000    -0.6561583000
   54      C      -4.2859357000     0.2093821000     0.6148004000
   55      H      -3.4166718000     0.8657495000     0.5648785000
   56      H      -5.0500224000     0.7852582000     1.1814689000
   57      O      -5.1296487000    -3.1149714000     1.2607558000
   58      O       3.3918470000    -1.4039690000     2.2069542000
   59      O       0.6312560000    -0.6603870000    -1.2023526000
   60      Fe     -0.2436151000     1.0406353000    -0.6513734000
   61      O      -1.7557754000     0.9405639000    -1.9020257000
   62      O      -1.2260028000     2.6928749000    -0.1087606000
   63      O       0.9229988000     2.1762456000    -1.7122680000
   64      O       1.2552754000     1.1422575000     0.5804503000
   65      H       3.7848004000     3.7162236000    -1.1650162000
   66      H      -2.8758294000     4.9377970000    -0.0165028000
 ----------------------------------------------------------------
 Nuclear Repulsion Energy =        5338.68577125 hartrees
 There are      152 alpha and      147 beta electrons
 Using C-PCM dielectric factor f(eps) = (eps-1)/eps = 0.987243
No default van der Waals radius is available for Z = 26
	Found R = 2.4400 A in the $van_der_waals section
 Discretize the solute cavity surface with Lebedev spheres
	Using 110 Lebedev grid points for each H atom
	Using 194 Lebedev grid points for other atoms
	Atomic van der Waals radii (Bondi set) will be scaled by 1.20
 Using smooth SwiG surface discretization
 Remove points where switching function is < 1.0e-08
 Keep 3890 surface tesserae and discard 6478 interior tesserae
 Molecular Surface Area = 500.060 Angst**2

 Requested basis set is non-standard
 There are 318 shells and 692 basis functions
 A cutoff of  1.0D-12 yielded  38981 shell pairs
 There are    170887 function pairs (    189999 Cartesian)
 Smallest overlap matrix eigenvalue = 2.24E-04

 Scale SEOQF with 1.000000e-02/1.000000e-01/1.000000e-01

 Standard Electronic Orientation quadrupole field applied
 Nucleus-field energy     =     0.0000000439 hartrees
 ================ Generating on-the-fly SAD Guess ================
 Attempting to make child job directory: /data/scratch/C_FeABstar_enol_ctL_N_3sexet_SkS_b3lypD3bj_ccpVDZ_pcmH2O_opt20240124104225//Frg1/
 Attempting to make child job directory: /data/scratch/C_FeABstar_enol_ctL_N_3sexet_SkS_b3lypD3bj_ccpVDZ_pcmH2O_opt20240124104225//Frg2/
 Attempting to make child job directory: /data/scratch/C_FeABstar_enol_ctL_N_3sexet_SkS_b3lypD3bj_ccpVDZ_pcmH2O_opt20240124104225//Frg3/
 Attempting to make child job directory: /data/scratch/C_FeABstar_enol_ctL_N_3sexet_SkS_b3lypD3bj_ccpVDZ_pcmH2O_opt20240124104225//Frg4/
 Attempting to make child job directory: /data/scratch/C_FeABstar_enol_ctL_N_3sexet_SkS_b3lypD3bj_ccpVDZ_pcmH2O_opt20240124104225//Frg5/
 Creating input file /data/scratch/C_FeABstar_enol_ctL_N_3sexet_SkS_b3lypD3bj_ccpVDZ_pcmH2O_opt20240124104225/Frg1.input
 using default PutDataFrgm: nothing
 calling putenv with: QCSCRATCH=/data/scratch/C_FeABstar_enol_ctL_N_3sexet_SkS_b3lypD3bj_ccpVDZ_pcmH2O_opt20240124104225/ 
 Spawning Job For Fragment 0
 Done Job For Fragment 0
 calling putenv with: QCSCRATCH=/data/scratch 
 calling putenv with: QCTHREADS=20 
 Creating input file /data/scratch/C_FeABstar_enol_ctL_N_3sexet_SkS_b3lypD3bj_ccpVDZ_pcmH2O_opt20240124104225/Frg2.input
 using default PutDataFrgm: nothing
 calling putenv with: QCSCRATCH=/data/scratch/C_FeABstar_enol_ctL_N_3sexet_SkS_b3lypD3bj_ccpVDZ_pcmH2O_opt20240124104225/ 
 Spawning Job For Fragment 1
 Done Job For Fragment 1
 calling putenv with: QCSCRATCH=/data/scratch 
 calling putenv with: QCTHREADS=20 
 Creating input file /data/scratch/C_FeABstar_enol_ctL_N_3sexet_SkS_b3lypD3bj_ccpVDZ_pcmH2O_opt20240124104225/Frg3.input
 using default PutDataFrgm: nothing
 calling putenv with: QCSCRATCH=/data/scratch/C_FeABstar_enol_ctL_N_3sexet_SkS_b3lypD3bj_ccpVDZ_pcmH2O_opt20240124104225/ 
 Spawning Job For Fragment 2
 Done Job For Fragment 2
 calling putenv with: QCSCRATCH=/data/scratch 
 calling putenv with: QCTHREADS=20 
 Creating input file /data/scratch/C_FeABstar_enol_ctL_N_3sexet_SkS_b3lypD3bj_ccpVDZ_pcmH2O_opt20240124104225/Frg4.input
 using default PutDataFrgm: nothing
 calling putenv with: QCSCRATCH=/data/scratch/C_FeABstar_enol_ctL_N_3sexet_SkS_b3lypD3bj_ccpVDZ_pcmH2O_opt20240124104225/ 
 Spawning Job For Fragment 3
 Done Job For Fragment 3
 calling putenv with: QCSCRATCH=/data/scratch 
 calling putenv with: QCTHREADS=20 
 Creating input file /data/scratch/C_FeABstar_enol_ctL_N_3sexet_SkS_b3lypD3bj_ccpVDZ_pcmH2O_opt20240124104225/Frg5.input
 using default PutDataFrgm: nothing
 calling putenv with: QCSCRATCH=/data/scratch/C_FeABstar_enol_ctL_N_3sexet_SkS_b3lypD3bj_ccpVDZ_pcmH2O_opt20240124104225/ 
 Spawning Job For Fragment 4
 Done Job For Fragment 4
 calling putenv with: QCSCRATCH=/data/scratch 
 calling putenv with: QCTHREADS=20 
 Time for running child jobs:  CPU 0.02 s  wall 77.49 s
 ============= Method Specific SAD Guess Constructed =============
 Guess from on-the-fly superposition of atomic densities
 Warning: Energy on first SCF cycle will be non-variational

 -----------------------------------------------------------------------
  General SCF calculation program by
  Eric Jon Sundstrom, Paul Horn, Yuezhi Mao, Dmitri Zuev, Alec White,
  David Stuck, Shaama M.S., Shane Yost, Joonho Lee, David Small,
  Daniel Levine, Susi Lehtola, Hugh Burton, Evgeny Epifanovsky,
  Bang C. Huynh
 -----------------------------------------------------------------------
 Exchange:     0.2000 Hartree-Fock + 0.0800 Slater + 0.7200 B88
 Correlation:  0.1900 VWN1RPA + 0.8100 LYP
 Using SG-1 standard quadrature grid
 Dispersion:   Grimme D3
 using 20 threads for integral computing
 -------------------------------------------------------
 OpenMP Integral computing Module                
 Release: version 1.0, May 2013, Q-Chem Inc. Pittsburgh 
 -------------------------------------------------------
 C-PCM solvent model [f = (eps-1)/eps], solve by matrix inversion
 A unrestricted SCF calculation will be
 performed using DIIS
 SCF converges when DIIS error is below 1.0e-08
 ---------------------------------------
  Cycle       Energy         DIIS error
 ---------------------------------------
    1   -3141.8419678771      1.63e-02  
    2   -3127.4590968120      2.21e-03  
    3   -3126.2952012029      3.46e-03  
    4   -3128.4461024933      7.20e-04  
    5   -3128.5379301531      2.86e-04  
    6   -3128.5450552502      2.51e-04  
    7   -3128.5542845691      9.20e-05  
    8   -3128.5559091994      3.88e-05  
    9   -3128.5562586052      1.60e-05  
   10   -3128.5563428609      8.55e-06  
   11   -3128.5563696074      4.34e-06  
   12   -3128.5563788591      1.84e-06  
   13   -3128.5563818924      1.35e-06  
   14   -3128.5563827202      5.29e-07  
   15   -3128.5563829140      3.02e-07  
   16   -3128.5563829454      1.51e-07  
   17   -3128.5563829513      5.56e-08  
   18   -3128.5563829521      2.54e-08  
   19   -3128.5563829524      1.43e-08  
   20   -3128.5563829526      7.47e-09  Convergence criterion met
 ---------------------------------------
 SCF time:   CPU 18805.75s  wall 1554.00s 
<S^2> =          8.759107923

************** Final PCM Free Energy Summary **************
 G_electrostatic  =      -0.29433784 hartree =    -184.69978194 kcal/mol
 G_cavitation     =       0.00000000 hartree =       0.00000000 kcal/mol
 G_dispersion     =       0.00000000 hartree =       0.00000000 kcal/mol
 G_repulsion      =       0.00000000 hartree =       0.00000000 kcal/mol
 --------------------------------------------------
 Non-electrostatic Free Energy =       0.00000000 hartree =       0.00000000 kcal/mol
 Total                         =      -0.29433784 hartree =    -184.69978194 kcal/mol
 --------------------------------------------------
 SCF Energy (H0 + V/2)                       =   -3128.55638295 
 Solute Internal Energy (H0)                 =   -3128.26204511 
 Total Free Energy (H0 + V/2 + non-elec)     =   -3128.55638295 hartree
                                             = -1963198.76086024 kcal/mol
***********************************************************

 SCF   energy in the final basis set =    -3128.5563829526
 Total energy in the final basis set =    -3128.5563829526
 
 --------------------------------------------------------------
 
                    Orbital Energies (a.u.)
 --------------------------------------------------------------
 
 Alpha MOs
 -- Occupied --
******** -30.1302 -25.9851 -25.9804 -25.9795 -19.1442 -19.1403 -19.1366
-19.1360 -19.1339 -19.1205 -19.0943 -19.0623 -19.0611 -19.0457 -19.0342
-14.4149 -14.4136 -14.3396 -14.3353 -10.3011 -10.2988 -10.2827 -10.2772
-10.2707 -10.2475 -10.2442 -10.2252 -10.2172 -10.2103 -10.2085 -10.2054
-10.2014 -10.1994 -10.1852 -10.1830 -10.1759 -10.1752 -10.1750 -10.1661
-10.1591  -3.6171  -2.3979  -2.3890  -2.3871  -1.1000  -1.0854  -1.0480
 -1.0358  -1.0290  -1.0232  -1.0046  -1.0038  -0.9973  -0.9104  -0.9039
 -0.8758  -0.8738  -0.8510  -0.8475  -0.7907  -0.7857  -0.7725  -0.7570
 -0.7401  -0.7286  -0.7209  -0.7106  -0.6898  -0.6784  -0.6384  -0.6311
 -0.5995  -0.5857  -0.5785  -0.5625  -0.5528  -0.5481  -0.5431  -0.5328
 -0.5246  -0.5218  -0.5142  -0.5013  -0.4970  -0.4946  -0.4873  -0.4839
 -0.4753  -0.4656  -0.4587  -0.4518  -0.4492  -0.4478  -0.4444  -0.4390
 -0.4348  -0.4344  -0.4293  -0.4284  -0.4255  -0.4194  -0.4171  -0.4138
 -0.4106  -0.4066  -0.4013  -0.4002  -0.3957  -0.3923  -0.3895  -0.3866
 -0.3853  -0.3791  -0.3774  -0.3771  -0.3759  -0.3731  -0.3703  -0.3643
 -0.3600  -0.3578  -0.3488  -0.3475  -0.3443  -0.3420  -0.3375  -0.3338
 -0.3276  -0.3248  -0.3179  -0.3160  -0.3142  -0.3109  -0.3029  -0.2984
 -0.2954  -0.2853  -0.2572  -0.2478  -0.2434  -0.2331  -0.2272  -0.2243
 -0.2236  -0.2145  -0.2114  -0.2066  -0.2057  -0.2022  -0.1935  -0.1870
 -- Virtual --
 -0.0305  -0.0021   0.0031   0.0279   0.0344   0.0499   0.0537   0.0578
  0.0625   0.0695   0.0744   0.0812   0.0872   0.0872   0.0930   0.0957
  0.0998   0.1029   0.1045   0.1110   0.1145   0.1265   0.1295   0.1304
  0.1380   0.1408   0.1422   0.1460   0.1468   0.1492   0.1548   0.1597
  0.1628   0.1677   0.1701   0.1715   0.1780   0.1787   0.1817   0.1832
  0.1878   0.1958   0.2027   0.2077   0.2150   0.2186   0.2188   0.2300
  0.2338   0.2375   0.2413   0.2469   0.2520   0.2589   0.2615   0.2654
  0.2733   0.2769   0.2793   0.2814   0.2890   0.2979   0.3097   0.3180
  0.3272   0.3324   0.3345   0.3448   0.3472   0.3581   0.3647   0.3705
  0.3757   0.3836   0.3904   0.3948   0.3982   0.4064   0.4086   0.4171
  0.4199   0.4247   0.4321   0.4335   0.4402   0.4439   0.4477   0.4553
  0.4561   0.4614   0.4636   0.4742   0.4778   0.4855   0.4877   0.4967
  0.5037   0.5056   0.5180   0.5228   0.5263   0.5304   0.5364   0.5408
  0.5452   0.5521   0.5542   0.5570   0.5643   0.5700   0.5709   0.5757
  0.5789   0.5814   0.5847   0.5906   0.5936   0.5966   0.6064   0.6076
  0.6113   0.6165   0.6191   0.6198   0.6237   0.6252   0.6271   0.6304
  0.6362   0.6371   0.6398   0.6442   0.6463   0.6478   0.6527   0.6576
  0.6608   0.6624   0.6670   0.6719   0.6745   0.6767   0.6849   0.6858
  0.6884   0.6957   0.6980   0.6995   0.7019   0.7051   0.7067   0.7097
  0.7139   0.7162   0.7222   0.7242   0.7281   0.7289   0.7332   0.7372
  0.7465   0.7521   0.7575   0.7679   0.7707   0.7808   0.7825   0.7878
  0.7954   0.8013   0.8081   0.8117   0.8202   0.8288   0.8374   0.8456
  0.8534   0.8575   0.8645   0.8715   0.8763   0.8833   0.8876   0.8956
  0.9029   0.9065   0.9141   0.9207   0.9393   0.9493   0.9523   0.9594
  0.9643   0.9790   0.9843   0.9931   1.0015   1.0080   1.0127   1.0152
  1.0214   1.0298   1.0413   1.0462   1.0561   1.0637   1.0674   1.0739
  1.0757   1.0873   1.0908   1.0949   1.1014   1.1098   1.1120   1.1178
  1.1222   1.1319   1.1358   1.1415   1.1511   1.1581   1.1599   1.1605
  1.1654   1.1731   1.1768   1.1855   1.1878   1.1920   1.2008   1.2082
  1.2173   1.2194   1.2290   1.2315   1.2378   1.2454   1.2482   1.2533
  1.2552   1.2636   1.2684   1.2737   1.2816   1.2863   1.2923   1.2942
  1.3028   1.3062   1.3121   1.3258   1.3298   1.3436   1.3459   1.3556
  1.3596   1.3669   1.3724   1.3777   1.3851   1.3953   1.4010   1.4089
  1.4104   1.4182   1.4216   1.4230   1.4416   1.4493   1.4546   1.4555
  1.4620   1.4635   1.4714   1.4798   1.4833   1.4865   1.4899   1.4972
  1.5071   1.5090   1.5284   1.5288   1.5351   1.5421   1.5464   1.5528
  1.5657   1.5678   1.5712   1.5777   1.5864   1.5883   1.5925   1.5963
  1.5977   1.6043   1.6129   1.6165   1.6221   1.6266   1.6295   1.6324
  1.6356   1.6411   1.6432   1.6449   1.6505   1.6542   1.6631   1.6656
  1.6692   1.6751   1.6781   1.6841   1.6897   1.6912   1.6943   1.6978
  1.7053   1.7103   1.7133   1.7143   1.7224   1.7257   1.7348   1.7361
  1.7398   1.7415   1.7444   1.7492   1.7505   1.7556   1.7614   1.7629
  1.7723   1.7746   1.7773   1.7782   1.7867   1.7881   1.7937   1.7993
  1.8064   1.8117   1.8161   1.8193   1.8221   1.8291   1.8338   1.8416
  1.8468   1.8478   1.8520   1.8558   1.8603   1.8674   1.8751   1.8846
  1.8862   1.8950   1.8980   1.8999   1.9101   1.9156   1.9181   1.9298
  1.9374   1.9469   1.9477   1.9519   1.9590   1.9659   1.9741   1.9854
  1.9900   1.9949   2.0050   2.0139   2.0152   2.0233   2.0287   2.0398
  2.0482   2.0511   2.0610   2.0757   2.0804   2.0874   2.0964   2.0989
  2.1062   2.1087   2.1157   2.1239   2.1298   2.1360   2.1422   2.1511
  2.1516   2.1579   2.1653   2.1722   2.1773   2.1811   2.1904   2.2004
  2.2052   2.2122   2.2149   2.2225   2.2319   2.2360   2.2412   2.2484
  2.2585   2.2632   2.2670   2.2762   2.2817   2.2949   2.2982   2.3019
  2.3127   2.3258   2.3349   2.3405   2.3409   2.3455   2.3521   2.3548
  2.3620   2.3712   2.3773   2.3844   2.3898   2.3904   2.4061   2.4114
  2.4203   2.4333   2.4434   2.4496   2.4551   2.4592   2.4673   2.4770
  2.4883   2.4949   2.4990   2.5066   2.5179   2.5241   2.5299   2.5430
  2.5567   2.5586   2.5668   2.5718   2.5912   2.6016   2.6116   2.6154
  2.6316   2.6419   2.6562   2.6670   2.6749   2.6795   2.6867   2.6932
  2.6966   2.7004   2.7144   2.7180   2.7220   2.7284   2.7327   2.7396
  2.7473   2.7491   2.7575   2.7670   2.7768   2.7785   2.7915   2.7969
  2.8013   2.8188   2.8261   2.8480   2.8507   2.8663   2.8952   2.9069
  2.9317   2.9446   2.9516   2.9775   3.0009   3.0203   3.0343   3.0389
  3.0454   3.0533   3.0600   3.0728   3.0828   3.0888   3.1086   3.1299
  3.1330   3.1350   3.1574   3.1815   3.1895   3.1958   3.2277   3.2944
  3.3309   3.3768   3.3876   3.3915   3.4163   3.4649   3.4764   3.4858
  3.4999   3.5068   3.5287   3.5420   3.5453   3.5746   3.5786   3.6074
  3.6352   3.6804   3.7049   3.7348
 
 Beta MOs
 -- Occupied --
******** -30.0372 -25.9064 -25.9032 -25.9027 -19.1408 -19.1371 -19.1333
-19.1300 -19.1289 -19.1166 -19.0943 -19.0623 -19.0611 -19.0457 -19.0342
-14.4142 -14.4132 -14.3391 -14.3352 -10.3012 -10.2989 -10.2825 -10.2773
-10.2707 -10.2475 -10.2442 -10.2251 -10.2172 -10.2103 -10.2085 -10.2053
-10.2013 -10.1992 -10.1852 -10.1830 -10.1759 -10.1752 -10.1750 -10.1661
-10.1588  -3.4007  -2.1669  -2.1626  -2.1612  -1.0938  -1.0799  -1.0424
 -1.0287  -1.0275  -1.0160  -1.0038  -1.0032  -0.9917  -0.9103  -0.9014
 -0.8757  -0.8738  -0.8457  -0.8425  -0.7900  -0.7852  -0.7715  -0.7562
 -0.7394  -0.7277  -0.7194  -0.7095  -0.6892  -0.6778  -0.6376  -0.6300
 -0.5968  -0.5848  -0.5754  -0.5553  -0.5497  -0.5396  -0.5367  -0.5299
 -0.5203  -0.5120  -0.5033  -0.4941  -0.4923  -0.4893  -0.4810  -0.4795
 -0.4707  -0.4637  -0.4563  -0.4475  -0.4456  -0.4423  -0.4375  -0.4327
 -0.4296  -0.4265  -0.4259  -0.4246  -0.4164  -0.4131  -0.4069  -0.4001
 -0.3980  -0.3948  -0.3945  -0.3909  -0.3878  -0.3821  -0.3816  -0.3790
 -0.3757  -0.3745  -0.3703  -0.3622  -0.3605  -0.3521  -0.3493  -0.3466
 -0.3416  -0.3355  -0.3333  -0.3284  -0.3266  -0.3207  -0.3166  -0.3152
 -0.3134  -0.3111  -0.3072  -0.3014  -0.2967  -0.2859  -0.2683  -0.2607
 -0.2436  -0.2421  -0.2243  -0.2235  -0.2152  -0.2137  -0.2082  -0.2029
 -0.1989  -0.1935  -0.1871
 -- Virtual --
 -0.0883  -0.0808  -0.0720  -0.0304  -0.0135  -0.0024   0.0068   0.0079
  0.0280   0.0356   0.0504   0.0545   0.0585   0.0629   0.0704   0.0754
  0.0823   0.0884   0.0895   0.0939   0.0963   0.1002   0.1037   0.1055
  0.1117   0.1148   0.1267   0.1298   0.1311   0.1383   0.1422   0.1429
  0.1469   0.1480   0.1501   0.1565   0.1602   0.1634   0.1684   0.1707
  0.1720   0.1787   0.1801   0.1820   0.1841   0.1882   0.1968   0.2037
  0.2096   0.2169   0.2193   0.2202   0.2318   0.2350   0.2386   0.2423
  0.2483   0.2533   0.2593   0.2629   0.2683   0.2766   0.2786   0.2813
  0.2824   0.2921   0.3057   0.3137   0.3221   0.3320   0.3346   0.3394
  0.3485   0.3521   0.3604   0.3679   0.3743   0.3781   0.3850   0.3934
  0.3978   0.4034   0.4095   0.4136   0.4201   0.4230   0.4277   0.4336
  0.4344   0.4418   0.4457   0.4480   0.4561   0.4586   0.4624   0.4651
  0.4756   0.4787   0.4869   0.4890   0.4976   0.5057   0.5074   0.5194
  0.5243   0.5279   0.5310   0.5371   0.5423   0.5468   0.5528   0.5550
  0.5582   0.5652   0.5712   0.5716   0.5781   0.5794   0.5825   0.5853
  0.5908   0.5944   0.5980   0.6068   0.6080   0.6121   0.6170   0.6196
  0.6205   0.6239   0.6259   0.6277   0.6311   0.6369   0.6380   0.6406
  0.6445   0.6470   0.6488   0.6532   0.6589   0.6613   0.6630   0.6678
  0.6730   0.6765   0.6784   0.6861   0.6873   0.6895   0.6961   0.6987
  0.7012   0.7025   0.7055   0.7081   0.7102   0.7156   0.7181   0.7236
  0.7266   0.7294   0.7299   0.7344   0.7395   0.7491   0.7543   0.7637
  0.7700   0.7721   0.7826   0.7859   0.7904   0.7999   0.8022   0.8095
  0.8166   0.8262   0.8354   0.8434   0.8533   0.8559   0.8617   0.8704
  0.8738   0.8807   0.8862   0.8917   0.8973   0.9050   0.9089   0.9191
  0.9273   0.9416   0.9515   0.9567   0.9608   0.9667   0.9814   0.9866
  0.9945   1.0066   1.0110   1.0138   1.0167   1.0249   1.0326   1.0430
  1.0484   1.0569   1.0647   1.0694   1.0756   1.0780   1.0883   1.0936
  1.0969   1.1037   1.1125   1.1131   1.1209   1.1245   1.1345   1.1381
  1.1428   1.1534   1.1596   1.1618   1.1622   1.1669   1.1752   1.1778
  1.1870   1.1908   1.1936   1.2027   1.2101   1.2189   1.2217   1.2312
  1.2374   1.2391   1.2486   1.2511   1.2552   1.2575   1.2674   1.2722
  1.2824   1.2858   1.2890   1.2956   1.3036   1.3054   1.3096   1.3168
  1.3317   1.3334   1.3493   1.3509   1.3594   1.3660   1.3702   1.3784
  1.3838   1.3932   1.3983   1.4060   1.4111   1.4177   1.4217   1.4245
  1.4316   1.4453   1.4523   1.4571   1.4609   1.4663   1.4697   1.4771
  1.4853   1.4870   1.4948   1.4997   1.5023   1.5178   1.5230   1.5338
  1.5381   1.5426   1.5451   1.5514   1.5597   1.5682   1.5715   1.5772
  1.5813   1.5889   1.5922   1.5964   1.6036   1.6076   1.6116   1.6143
  1.6211   1.6271   1.6288   1.6340   1.6349   1.6418   1.6429   1.6463
  1.6485   1.6515   1.6575   1.6667   1.6712   1.6753   1.6785   1.6802
  1.6873   1.6918   1.6932   1.6960   1.7003   1.7080   1.7121   1.7153
  1.7226   1.7239   1.7288   1.7377   1.7387   1.7419   1.7425   1.7466
  1.7513   1.7521   1.7578   1.7624   1.7654   1.7745   1.7772   1.7797
  1.7821   1.7886   1.7904   1.7970   1.8005   1.8101   1.8133   1.8197
  1.8205   1.8241   1.8309   1.8353   1.8426   1.8480   1.8504   1.8548
  1.8581   1.8649   1.8703   1.8764   1.8871   1.8885   1.8963   1.9012
  1.9027   1.9131   1.9171   1.9224   1.9330   1.9403   1.9487   1.9502
  1.9548   1.9607   1.9681   1.9766   1.9893   1.9941   1.9983   2.0061
  2.0154   2.0181   2.0252   2.0310   2.0419   2.0505   2.0549   2.0670
  2.0801   2.0830   2.0892   2.0997   2.1008   2.1079   2.1111   2.1173
  2.1261   2.1326   2.1388   2.1431   2.1527   2.1535   2.1611   2.1670
  2.1740   2.1806   2.1842   2.1910   2.2023   2.2066   2.2137   2.2162
  2.2232   2.2328   2.2371   2.2427   2.2510   2.2597   2.2663   2.2698
  2.2774   2.2865   2.2959   2.3002   2.3035   2.3146   2.3288   2.3389
  2.3428   2.3461   2.3515   2.3533   2.3555   2.3639   2.3727   2.3785
  2.3868   2.3914   2.3935   2.4088   2.4165   2.4248   2.4355   2.4465
  2.4513   2.4577   2.4625   2.4690   2.4793   2.4901   2.4960   2.5032
  2.5076   2.5200   2.5252   2.5312   2.5453   2.5585   2.5626   2.5696
  2.5768   2.5921   2.6040   2.6143   2.6173   2.6422   2.6462   2.6648
  2.6741   2.6762   2.6835   2.6901   2.7042   2.7068   2.7140   2.7173
  2.7214   2.7259   2.7310   2.7400   2.7428   2.7531   2.7583   2.7607
  2.7704   2.7793   2.7832   2.7945   2.7979   2.8037   2.8290   2.8370
  2.8544   2.8609   2.8783   2.8983   2.9172   2.9496   2.9637   2.9752
  3.0150   3.0384   3.0413   3.0503   3.0527   3.0623   3.0766   3.0811
  3.0864   3.1024   3.1132   3.1296   3.1327   3.1572   3.1894   3.1955
  3.1986   3.2208   3.2402   3.2677   3.3223   3.3587   3.3888   3.3897
  3.3929   3.4317   3.4657   3.4849   3.4928   3.5066   3.5086   3.5293
  3.5495   3.5749   3.5786   3.5949   3.6397   3.7057   3.7280   3.7439
  3.7870
 --------------------------------------------------------------
 
          Ground-State Mulliken Net Atomic Charges

     Atom                 Charge (a.u.)    Spin (a.u.)
  --------------------------------------------------------
      1 N                    -0.039456       0.020225
      2 C                     0.053910      -0.000777
      3 H                     0.006352       0.001033
      4 N                    -0.148813       0.016153
      5 H                     0.090486       0.001034
      6 C                     0.068913      -0.000020
      7 O                    -0.555152       0.000142
      8 C                     0.276780       0.011632
      9 O                    -0.452924       0.106898
     10 C                     0.165952       0.001586
     11 C                    -0.026061       0.005141
     12 H                     0.066220       0.000564
     13 H                     0.075299       0.000013
     14 C                    -0.073669       0.019090
     15 H                    -0.012753       0.000713
     16 C                     0.063805      -0.002049
     17 C                     0.075482       0.008604
     18 H                     0.056679      -0.000203
     19 H                     0.068357       0.001072
     20 C                     0.112704      -0.000638
     21 O                    -0.354318       0.000029
     22 N                    -0.111218       0.000342
     23 H                     0.091311       0.000287
     24 C                     0.099167      -0.000023
     25 O                    -0.381139       0.000040
     26 C                     0.164232      -0.001541
     27 N                    -0.056169       0.029362
     28 C                     0.136705      -0.000226
     29 H                     0.038421       0.001552
     30 H                     0.018829       0.000529
     31 C                    -0.007979       0.004852
     32 H                     0.081561      -0.000315
     33 H                     0.061150      -0.000012
     34 C                    -0.049195       0.001909
     35 H                     0.008006       0.000116
     36 H                     0.010755       0.000192
     37 C                    -0.013704       0.000058
     38 H                     0.017497      -0.000134
     39 H                     0.010404      -0.000006
     40 C                     0.036119       0.000039
     41 H                    -0.004802      -0.000003
     42 H                    -0.002783      -0.000002
     43 C                     0.038730      -0.000013
     44 H                     0.008156       0.000044
     45 C                    -0.028562       0.001197
     46 H                     0.016726       0.000070
     47 H                     0.014545       0.000408
     48 C                     0.117669       0.000293
     49 H                     0.051480       0.001214
     50 H                     0.040412       0.000615
     51 C                     0.000578       0.000063
     52 H                     0.007504       0.000004
     53 H                     0.000743      -0.000005
     54 C                     0.003049       0.000823
     55 H                     0.046725       0.000476
     56 H                    -0.016658       0.000080
     57 O                    -0.381620       0.000466
     58 O                    -0.530853       0.000334
     59 O                    -0.339733       0.081474
     60 Fe                    0.677304       4.171695
     61 O                    -0.427771       0.149179
     62 O                    -0.347176       0.086430
     63 O                    -0.338201       0.093516
     64 O                    -0.410535       0.183588
     65 H                     0.069815       0.000811
     66 H                     0.062713      -0.000019
  --------------------------------------------------------
  Sum of atomic charges =    -2.000000
  Sum of spin   charges =     5.000000

 -----------------------------------------------------------------
                    Cartesian Multipole Moments
 -----------------------------------------------------------------
    Charge (ESU x 10^10)
                -9.6064
    Dipole Moment (Debye)
         X       3.4264      Y      19.9410      Z     -16.1948
       Tot      25.9163
    Quadrupole Moments (Debye-Ang)
        XX    -434.0315     XY     -16.3230     YY    -250.3948
        XZ      19.5849     YZ      11.0830     ZZ    -275.4698
    Octopole Moments (Debye-Ang^2)
       XXX     452.4909    XXY     624.6618    XYY      18.4548
       YYY     239.8474    XXZ    -442.6492    XYZ     -76.5209
       YYZ      27.9078    XZZ     -32.2002    YZZ     104.3585
       ZZZ     124.9578
    Hexadecapole Moments (Debye-Ang^3)
      XXXX  -24533.4199   XXXY    -615.3510   XXYY   -4620.2050
      XYYY     364.7351   YYYY   -5916.3523   XXXZ    1480.2176
      XXYZ     670.2442   XYYZ     444.5794   YYYZ     357.2997
      XXZZ   -4308.9231   XYZZ     262.5329   YYZZ   -1575.9437
      XZZZ     383.4589   YZZZ     541.5220   ZZZZ   -2801.1399
 -----------------------------------------------------------------
 Calculating analytic gradient of the SCF energy
 Gradient of SCF Energy
            1           2           3           4           5           6
    1  -0.0037626   0.0147002  -0.0145966  -0.0098202   0.0095468  -0.0292941
    2   0.0033530   0.0091260  -0.0192812  -0.0434726   0.0483156  -0.1237943
    3   0.0053011   0.0372117  -0.0470309  -0.0314783   0.0141726  -0.0237841
            7           8           9          10          11          12
    1   0.0561238   0.0575160   0.0243084   0.0460807  -0.0004486   0.0022732
    2  -0.0298400  -0.0697431   0.0029442  -0.0048557   0.0072977   0.0035404
    3  -0.0350595  -0.0222769  -0.0321305   0.0303796   0.0109616   0.0128157
           13          14          15          16          17          18
    1   0.0126026  -0.0752223   0.0095296   0.0300985   0.0181869   0.0047152
    2   0.0091424   0.0392211   0.0412509   0.0817169  -0.0223718  -0.0027055
    3  -0.0192904   0.0440844  -0.0009725  -0.0241036  -0.0084663   0.0382816
           19          20          21          22          23          24
    1   0.0120936   0.0525252  -0.0818131  -0.0412835   0.0420551   0.1016613
    2   0.0232962  -0.0481967   0.0803394   0.0132143  -0.0355947   0.0089737
    3  -0.0117644  -0.0513948   0.0839473   0.0030783  -0.0324172   0.0776845
           25          26          27          28          29          30
    1  -0.1680619  -0.0637608   0.0065808   0.0013749  -0.0071178   0.0038720
    2  -0.0222166   0.0033425  -0.0017039  -0.0000064  -0.0323683   0.0326007
    3  -0.0779798  -0.0181469  -0.0126458   0.0218709  -0.0159305  -0.0345520
           31          32          33          34          35          36
    1  -0.0035169  -0.0116703   0.0149252   0.0156657  -0.0068302  -0.0201670
    2  -0.0053617   0.0159108  -0.0145302  -0.0005177  -0.0198425   0.0065116
    3  -0.0076677   0.0139111   0.0141319   0.0114576   0.0123834  -0.0215049
           37          38          39          40          41          42
    1  -0.0172458   0.0356116  -0.0121929   0.0182256  -0.0030772  -0.0303885
    2  -0.0033511   0.0028703  -0.0066462  -0.0024463   0.0163160  -0.0029295
    3  -0.0152309   0.0125869   0.0201207  -0.0075345   0.0277280  -0.0084297
           43          44          45          46          47          48
    1   0.0271650  -0.0198142  -0.0093205   0.0089961   0.0131228   0.0000513
    2  -0.0307039   0.0427841   0.0028763  -0.0166579   0.0038328   0.0071390
    3   0.0036760  -0.0008821   0.0021553  -0.0166877   0.0138719  -0.0101472
           49          50          51          52          53          54
    1  -0.0006580  -0.0069769  -0.0024002  -0.0224749   0.0322615   0.0047478
    2  -0.0174501   0.0183525  -0.0184781   0.0207154   0.0182706   0.0216253
    3   0.0013817   0.0214540  -0.0124922   0.0204926  -0.0021187   0.0094353
           55          56          57          58          59          60
    1  -0.0389937   0.0238935  -0.0033591   0.0472064  -0.0464377   0.0099805
    2  -0.0258238  -0.0201829   0.1746044   0.0112128  -0.0750601   0.0212549
    3   0.0025721  -0.0166414   0.0534545  -0.0348853   0.0365305  -0.0000169
           61          62          63          64          65          66
    1   0.0255526  -0.0515426   0.0703095  -0.0242262  -0.0098488  -0.0172372
    2  -0.0072001  -0.0269248  -0.0183575  -0.0033815  -0.0049341  -0.0150206
    3   0.0188739  -0.0415248   0.0594701  -0.0155062  -0.0141759  -0.0106064
 Max gradient component =       1.746E-01
 RMS gradient           =       3.538E-02
 Computing fast CPCM-SWIG gradient
 Updating gradient with PCM contributions...
 -- total gradient after adding PCM contribution --
---------------------------------------------------
  Atom         X              Y              Z     
---------------------------------------------------
   1       0.014915      -0.033496      -0.005862
   2      -0.002613      -0.014535       0.003035
   3       0.004956      -0.000794      -0.000023
   4      -0.039001      -0.018475       0.012444
   5       0.005347      -0.010603      -0.006859
   6       0.090649      -0.029908      -0.046248
   7      -0.062932      -0.003475       0.022781
   8       0.067945      -0.072038      -0.028998
   9       0.029199       0.072677      -0.028256
  10       0.026724      -0.003755       0.039066
  11       0.006711       0.006602       0.011818
  12      -0.012819       0.012936      -0.006283
  13      -0.011648       0.002290       0.000220
  14      -0.073004       0.047953       0.053932
  15      -0.002102      -0.009608       0.001367
  16       0.043310       0.047254      -0.038330
  17       0.015724      -0.010426      -0.004686
  18      -0.005380      -0.003157      -0.004066
  19       0.000674      -0.018376       0.000259
  20      -0.016494      -0.004399      -0.011647
  21      -0.013375       0.013470       0.017655
  22       0.025170      -0.002091       0.001953
  23      -0.011169      -0.000625      -0.003965
  24       0.080478      -0.011889      -0.066094
  25      -0.052684      -0.003056       0.002595
  26      -0.053439       0.007375      -0.020733
  27      -0.026267      -0.023776       0.014384
  28      -0.014508       0.002158      -0.010195
  29       0.004986       0.000116       0.003178
  30       0.009443       0.003012       0.000431
  31      -0.006550      -0.003904      -0.013650
  32       0.008808      -0.000980      -0.003419
  33       0.005726       0.010182      -0.001752
  34       0.001112      -0.013449       0.007727
  35       0.004802       0.003653      -0.002343
  36       0.014791       0.000893      -0.001064
  37      -0.013747      -0.000628       0.006239
  38      -0.002082       0.002499      -0.003496
  39       0.006617       0.002272      -0.004445
  40      -0.002514       0.002103       0.009642
  41       0.000791      -0.001289      -0.006628
  42       0.009395       0.000410      -0.001001
  43       0.002417       0.001902       0.008896
  44       0.002108      -0.003245       0.001563
  45       0.002112       0.004886       0.004729
  46      -0.005388       0.002720       0.002423
  47      -0.007428      -0.003961      -0.005742
  48       0.011566       0.010774       0.010295
  49      -0.010838       0.005227      -0.012264
  50      -0.007505      -0.002197      -0.007459
  51       0.003428      -0.002375      -0.008200
  52       0.003090      -0.002091      -0.003942
  53      -0.004353      -0.000029       0.003435
  54       0.006568      -0.002109      -0.002828
  55      -0.002845       0.002844       0.000434
  56      -0.002033       0.007584       0.000793
  57      -0.027308       0.040180       0.023008
  58      -0.031491       0.012142       0.056171
  59      -0.020578      -0.002041       0.032316
  60       0.009314       0.015107      -0.004144
  61       0.014134      -0.008775       0.008367
  62       0.003171      -0.021010      -0.022136
  63       0.018634      -0.017362       0.032061
  64      -0.013992      -0.003284      -0.007124
  65       0.007988       0.008478       0.005057
  66      -0.006713       0.013512      -0.004390
---------------------------------------------------
 Number of fixed atoms: 0
 Gradient time:  CPU 16258.06 s  wall 1144.58 s

 *****************************************************
             Starting BFGS Algorithm
 *****************************************************
            LIBOPT3 RUN PARAMETERS

  Geometry Optimization Coordinates :
	Delocalized Natural Internal Coordinates

  Step Length Selection Method :
	Eigenvector Following Algorithm

  Convergence Criteria :
	Max Gradient Component    	3.00000000e-04
	Max Displacement Component	1.20000000e-03
	Absolute Energy Difference	1.00000000e-06

  Initial Hessian :
	Approximate Hessian - Simple Internal Coordinate Scaled

  Type of Verification :
	Verify with final updated Hessian
 *****************************************************

	OPTIMIZATION CYCLE:	1

 Scaling Magnitude of Eigenvalues
 	Minimum: -25.00000000	 Maximum: 25.00000000
 192 Hessian Eigenvalues to form next step
   0.10000000   0.10000000   0.10000000   0.10000000   0.10000000
   0.10000000   0.10000000   0.10000000   0.10000056   0.10000072
   0.10000132   0.10001215   0.10001445   0.10001804   0.10002794
   0.10003150   0.10004397   0.10006644   0.10007873   0.10010129
   0.10014787   0.10015443   0.10028983   0.10031558   0.10037143
   0.10042536   0.10092770   0.10323009   0.10520560   0.10596400
   0.10676341   0.10996116   0.11087585   0.11208506   0.11508180
   0.11544386   0.11707592   0.11715118   0.11825120   0.11949127
   0.12257576   0.12328567   0.12380321   0.12401500   0.12567140
   0.12652599   0.12685567   0.12743340   0.12857716   0.12945567
   0.13263799   0.13311049   0.13428423   0.13515613   0.13667279
   0.13707878   0.13744890   0.13748061   0.13873477   0.13926193
   0.14007357   0.14102452   0.14213414   0.14425854   0.14596164
   0.14963355   0.15014830   0.15195494   0.15515454   0.15517613
   0.15553542   0.15642712   0.15694110   0.15987984   0.16198524
   0.16329337   0.16896521   0.17259838   0.17604660   0.17685290
   0.17853392   0.17893340   0.18011718   0.18204196   0.18258995
   0.18324448   0.18398983   0.18773019   0.18818480   0.19068821
   0.19274112   0.19527291   0.19727686   0.19771988   0.19816459
   0.19854333   0.19898344   0.19907414   0.19938491   0.19959921
   0.19980389   0.19984893   0.19985657   0.19993486   0.19997905
   0.19999681   0.20000000   0.20000000   0.20000000   0.20000000
   0.20000000   0.20000000   0.20000000   0.20000000   0.20083733
   0.20668435   0.20900545   0.21319178   0.22331728   0.28810603
   0.29658825   0.32067650   0.41474412   0.42428582   0.43726913
   0.43966481   0.44790369   0.45862066   0.46693072   0.46940976
   0.47537373   0.48010683   0.48463010   0.48591802   0.49719191
   0.49828812   0.49876956   0.49947683   0.49963367   0.49978678
   0.49995255   0.49998602   0.50000000   0.50000000   0.50000000
   0.50000000   0.50000000   0.50000000   0.50000000   0.50000000
   0.50000000   0.50000000   0.50000000   0.50000000   0.50000000
   0.50000000   0.50000000   0.50000000   0.50000000   0.50000000
   0.50000000   0.50000000   0.50000000   0.50000000   0.50000000
   0.50000000   0.50000000   0.50000000   0.50000000   0.50000000
   0.50000000   0.50000000   0.50000000   0.50000000   0.50000000
   0.50000000   0.50000000   0.50000000   0.50000000   0.50000000
   0.50000000   0.50000000   0.50000000   0.50000000   0.50000000
   0.50000000   0.50551909   0.50778624   0.51163895   0.51333256
   0.52059096   0.52694370

 Minimum Search taking a RFO step
 Searching for Lambda that minimizes along all modes
	Value of Lambda   -0.10252202
	Norm  of Stepsize  0.49728192
	RMS   of Stepsize  0.03588823

	Performing Iterative Coordinate Back-Transformation

	  Starting from Previous Position

	  iter:	0	rms: 7.0518371886e-02	maxdev: 3.2851399708e-01
	  iter:	1	rms: 2.3014345648e-03	maxdev: 1.8357310715e-02
	  iter:	2	rms: 5.9746014933e-06	maxdev: 6.1281943078e-05
	  iter:	3	rms: 9.7348508294e-11	maxdev: 1.3428577181e-09	 Success!

	Finished Iterative Coordinate Back-Transformation
 Adding empirical dispersion correction 
 ----------------------------------------------------------------
 Doing -D3(BJ) with
 s6  =   1.00000e+00
 s8  =   1.98890e+00
 a1  =   3.98100e-01
 a2  =   4.42110e+00
 -D3 energy without 3body term =     -1.5578655304e-01 hartrees
 ----------------------------------------------------------------
             Standard Nuclear Orientation (Angstroms)
    I     Atom           X                Y                Z
 ----------------------------------------------------------------
    1      N      -2.7306787753     1.8626844290    -1.5698930381
    2      C      -3.9233657220    -0.9750051973     1.4880395817
    3      H      -3.6044746237    -0.5952716578     2.4766725423
    4      N      -2.8400234405    -1.7598084546     0.9252444541
    5      H      -3.0820765720    -2.7149123761     0.6636227601
    6      C      -5.1255132191    -1.8942974223     1.6746720462
    7      O      -6.1553315236    -1.3360189096     2.2079264283
    8      C      -1.6172927953    -1.3261763541     0.4618484525
    9      O      -1.3253434419    -0.0454933760     0.5714531290
   10      C      -2.3991179989     2.7650668367    -0.6317951560
   11      C      -3.3562361379     3.9329460598    -0.3370628732
   12      H      -3.9358286457     4.2432373470    -1.2357506319
   13      H      -4.1288545344     3.6625346769     0.4084347499
   14      C      -0.8030240534    -2.2605053130    -0.1962657198
   15      H      -1.0572831243    -3.3255419309    -0.1425573126
   16      C       0.2785706056    -1.8918434995    -1.0412679562
   17      C       1.0831594673    -3.0205861263    -1.7022162837
   18      H       0.9159660893    -3.0043589058    -2.7942084581
   19      H       0.7400114263    -4.0240953966    -1.3645923333
   20      C       2.5792440419    -2.9760683720    -1.4534745950
   21      O       3.3531694527    -3.6370389526    -2.1733172114
   22      N       2.9996157674    -2.2577021469    -0.3856549351
   23      H       2.3144907846    -1.8026434598     0.2152800147
   24      C       4.4487007755    -1.6052180912     1.4484199824
   25      O       5.5913066092    -1.4225238600     1.9450097016
   26      C       2.0950301282     2.3231592826    -1.2101168605
   27      N       2.3510390793     1.6819816004    -0.0595986114
   28      C       3.6375567487     1.5759749988     0.6408985820
   29      H       3.8794567968     2.5162717128     1.1710096555
   30      H       3.4893531076     0.8184206876     1.4203353113
   31      C       3.1562974743     3.1672319376    -1.8911495598
   32      H       3.8260279910     2.5622793833    -2.5294805815
   33      H       2.6893484332     3.9613480897    -2.4964703241
   34      C       4.8695603712     1.1726693521    -0.2143840805
   35      H       5.2410349193     2.0781891262    -0.7282683644
   36      H       5.7059244507     0.9144916106     0.4661291964
   37      C       4.6902838484     0.0825884220    -1.2919410860
   38      H       3.6477789222     0.0411643604    -1.6491376416
   39      H       5.2929196571     0.4106594345    -2.1636349125
   40      C       5.2242904459    -1.3200391330    -0.9542799175
   41      H       5.2729703609    -1.8873544220    -1.9028244929
   42      H       6.2649509596    -1.2505824019    -0.5828411903
   43      C       4.3835643367    -2.1518713700     0.0299435121
   44      H       4.8250463876    -3.1669777278     0.0651445323
   45      C      -5.1911143322     1.2387705303    -1.5469191378
   46      H      -5.6497777553     1.9828704761    -0.8682882058
   47      H      -5.9629095959     1.0106570543    -2.3128953553
   48      C      -3.9887506993     1.8231254409    -2.3226542390
   49      H      -4.2619098660     2.7947626564    -2.7849888844
   50      H      -3.8016681514     1.1603158567    -3.1851150954
   51      C      -4.8638758833    -0.0506628202    -0.7643096428
   52      H      -4.1737708712    -0.6795281479    -1.3563925044
   53      H      -5.8025624516    -0.6172283362    -0.6170773344
   54      C      -4.2992227569     0.2592594024     0.6347798748
   55      H      -3.4303655174     0.9158657158     0.5716054828
   56      H      -5.0635948346     0.8337036625     1.1926009970
   57      O      -5.0183988467    -3.0920762347     1.2846923858
   58      O       3.3032560732    -1.4190654113     2.0326654498
   59      O       0.6330665239    -0.6896519607    -1.2310396972
   60      Fe     -0.2571129591     1.0125540994    -0.6545884073
   61      O      -1.7840471962     0.9373393397    -1.9121833677
   62      O      -1.2432962722     2.6827519487    -0.1155600095
   63      O       0.9370080742     2.1547962409    -1.7240850811
   64      O       1.2702457597     1.1400009474     0.5711642736
   65      H       3.7985016126     3.6791418226    -1.1455051715
   66      H      -2.8167457847     4.8392638258    -0.0139628353
 ----------------------------------------------------------------
 Nuclear Repulsion Energy =        5350.95504967 hartrees
 There are      152 alpha and      147 beta electrons
No default van der Waals radius is available for Z = 26
	Found R = 2.4400 A in the $van_der_waals section
 Discretize the solute cavity surface with Lebedev spheres
	Using 110 Lebedev grid points for each H atom
	Using 194 Lebedev grid points for other atoms
	Atomic van der Waals radii (Bondi set) will be scaled by 1.20
 Using smooth SwiG surface discretization
 Remove points where switching function is < 1.0e-08
 Keep 3849 surface tesserae and discard 6519 interior tesserae
 Molecular Surface Area = 494.365 Angst**2

 Applying Cartesian multipole field
    Component          Value
    ---------          -----
     (2,0,0)        1.00000E-12
     (0,2,0)        2.00000E-11
     (0,0,2)       -3.00000E-11
 Nucleus-field energy     = 4.1845379523e-08 hartrees
 Read the previous MOs as SCF guess

 -----------------------------------------------------------------------
  General SCF calculation program by
  Eric Jon Sundstrom, Paul Horn, Yuezhi Mao, Dmitri Zuev, Alec White,
  David Stuck, Shaama M.S., Shane Yost, Joonho Lee, David Small,
  Daniel Levine, Susi Lehtola, Hugh Burton, Evgeny Epifanovsky,
  Bang C. Huynh
 -----------------------------------------------------------------------
 Requested basis set is non-standard
 There are 318 shells and 692 basis functions
 Exchange:     0.2000 Hartree-Fock + 0.0800 Slater + 0.7200 B88
 Correlation:  0.1900 VWN1RPA + 0.8100 LYP
 Using SG-1 standard quadrature grid
 Dispersion:   Grimme D3
 A cutoff of  1.0D-12 yielded  39082 shell pairs
 There are    171458 function pairs (    190653 Cartesian)
 Smallest overlap matrix eigenvalue = 2.31E-04
 A unrestricted SCF calculation will be
 performed using DIIS
 SCF converges when DIIS error is below 1.0e-08
 ---------------------------------------
  Cycle       Energy         DIIS error
 ---------------------------------------
    1   -3128.4119792783      8.00e-04  
    2   -3128.5243097491      5.64e-04  
    3   -3128.5608653294      5.74e-04  
    4   -3128.6211263713      9.23e-05  
    5   -3128.6222800266      6.63e-05  
    6   -3128.6229634717      3.19e-05  
    7   -3128.6230722452      2.06e-05  
    8   -3128.6231389034      5.11e-06  
    9   -3128.6231436685      1.63e-06  
   10   -3128.6231442377      7.62e-07  
   11   -3128.6231443896      3.18e-07  
   12   -3128.6231444307      2.04e-07  
   13   -3128.6231444477      9.00e-08  
   14   -3128.6231444513      4.21e-08  
   15   -3128.6231444522      1.84e-08  
   16   -3128.6231444525      1.26e-08  
   17   -3128.6231444526      5.50e-09  Convergence criterion met
 ---------------------------------------
 SCF time:   CPU 19541.87s  wall 1390.00s 
<S^2> =          8.758578819

************** Final PCM Free Energy Summary **************
 G_electrostatic  =      -0.28494659 hartree =    -178.80668137 kcal/mol
 G_cavitation     =       0.00000000 hartree =       0.00000000 kcal/mol
 G_dispersion     =       0.00000000 hartree =       0.00000000 kcal/mol
 G_repulsion      =       0.00000000 hartree =       0.00000000 kcal/mol
 --------------------------------------------------
 Non-electrostatic Free Energy =       0.00000000 hartree =       0.00000000 kcal/mol
 Total                         =      -0.28494659 hartree =    -178.80668137 kcal/mol
 --------------------------------------------------
 SCF Energy (H0 + V/2)                       =   -3128.62314445 
 Solute Internal Energy (H0)                 =   -3128.33819787 
 Total Free Energy (H0 + V/2 + non-elec)     =   -3128.62314445 hartree
                                             = -1963240.65433380 kcal/mol
***********************************************************

 SCF   energy in the final basis set =    -3128.6231444526
 Total energy in the final basis set =    -3128.6231444526
 
 --------------------------------------------------------------
 
                    Orbital Energies (a.u.)
 --------------------------------------------------------------
 
 Alpha MOs
 -- Occupied --
******** -30.1338 -25.9885 -25.9841 -25.9832 -19.1390 -19.1372 -19.1329
-19.1326 -19.1256 -19.1211 -19.0940 -19.0638 -19.0608 -19.0600 -19.0511
-14.4162 -14.4140 -14.3370 -14.3330 -10.2947 -10.2947 -10.2854 -10.2768
-10.2592 -10.2503 -10.2485 -10.2240 -10.2172 -10.2029 -10.2009 -10.1988
-10.1976 -10.1924 -10.1838 -10.1806 -10.1744 -10.1737 -10.1703 -10.1647
-10.1604  -3.6193  -2.3996  -2.3910  -2.3892  -1.0905  -1.0860  -1.0346
 -1.0212  -1.0198  -1.0179  -1.0143  -0.9941  -0.9939  -0.9142  -0.9102
 -0.8996  -0.8958  -0.8570  -0.8536  -0.7899  -0.7867  -0.7715  -0.7556
 -0.7438  -0.7305  -0.7221  -0.7124  -0.6904  -0.6809  -0.6392  -0.6337
 -0.5980  -0.5873  -0.5752  -0.5612  -0.5518  -0.5455  -0.5395  -0.5290
 -0.5208  -0.5175  -0.5126  -0.5015  -0.4960  -0.4933  -0.4866  -0.4842
 -0.4771  -0.4644  -0.4594  -0.4504  -0.4480  -0.4464  -0.4449  -0.4386
 -0.4361  -0.4339  -0.4283  -0.4270  -0.4222  -0.4196  -0.4163  -0.4139
 -0.4117  -0.4038  -0.4007  -0.3995  -0.3982  -0.3936  -0.3902  -0.3882
 -0.3855  -0.3801  -0.3769  -0.3760  -0.3749  -0.3746  -0.3718  -0.3690
 -0.3612  -0.3593  -0.3485  -0.3464  -0.3443  -0.3369  -0.3352  -0.3306
 -0.3261  -0.3247  -0.3188  -0.3158  -0.3145  -0.3119  -0.3027  -0.2963
 -0.2933  -0.2836  -0.2569  -0.2466  -0.2435  -0.2330  -0.2299  -0.2243
 -0.2237  -0.2211  -0.2190  -0.2104  -0.2082  -0.2077  -0.2063  -0.2036
 -- Virtual --
 -0.0217  -0.0003   0.0070   0.0285   0.0351   0.0514   0.0557   0.0598
  0.0630   0.0706   0.0760   0.0835   0.0891   0.0901   0.0952   0.1000
  0.1022   0.1058   0.1070   0.1133   0.1179   0.1292   0.1315   0.1332
  0.1409   0.1438   0.1442   0.1483   0.1504   0.1524   0.1592   0.1619
  0.1659   0.1715   0.1745   0.1760   0.1818   0.1835   0.1845   0.1897
  0.1935   0.2000   0.2084   0.2097   0.2189   0.2236   0.2260   0.2354
  0.2377   0.2410   0.2470   0.2491   0.2544   0.2609   0.2641   0.2698
  0.2751   0.2809   0.2828   0.2846   0.2938   0.2978   0.3109   0.3170
  0.3268   0.3298   0.3340   0.3428   0.3553   0.3618   0.3674   0.3715
  0.3782   0.3874   0.3934   0.4014   0.4027   0.4092   0.4139   0.4192
  0.4210   0.4283   0.4355   0.4385   0.4451   0.4486   0.4504   0.4511
  0.4586   0.4652   0.4660   0.4811   0.4818   0.4856   0.4880   0.4973
  0.5035   0.5071   0.5164   0.5236   0.5262   0.5315   0.5412   0.5429
  0.5475   0.5509   0.5540   0.5572   0.5589   0.5665   0.5736   0.5764
  0.5791   0.5831   0.5869   0.5905   0.5954   0.6019   0.6039   0.6079
  0.6118   0.6149   0.6175   0.6235   0.6249   0.6269   0.6284   0.6311
  0.6376   0.6388   0.6396   0.6456   0.6484   0.6527   0.6540   0.6581
  0.6634   0.6636   0.6690   0.6705   0.6733   0.6785   0.6830   0.6853
  0.6876   0.6933   0.6964   0.7003   0.7031   0.7047   0.7056   0.7120
  0.7128   0.7170   0.7210   0.7230   0.7299   0.7335   0.7349   0.7374
  0.7448   0.7525   0.7596   0.7664   0.7701   0.7763   0.7839   0.7886
  0.7973   0.8071   0.8114   0.8134   0.8203   0.8273   0.8357   0.8486
  0.8541   0.8631   0.8655   0.8737   0.8777   0.8859   0.8874   0.8960
  0.9027   0.9056   0.9166   0.9193   0.9302   0.9438   0.9513   0.9543
  0.9603   0.9868   0.9896   0.9946   0.9988   1.0058   1.0111   1.0169
  1.0204   1.0332   1.0449   1.0499   1.0587   1.0633   1.0706   1.0755
  1.0813   1.0818   1.0919   1.0974   1.1042   1.1089   1.1126   1.1150
[...]
    Octopole Moments (Debye-Ang^2)
       XXX     236.1220    XXY     538.8564    XYY      13.4566
       YYY     200.7808    XXZ    -371.4011    XYZ     -86.2482
       YYZ      45.5423    XZZ     -16.0403    YZZ     108.2329
       ZZZ     166.4593
    Hexadecapole Moments (Debye-Ang^3)
      XXXX  -20843.3968   XXXY    -173.5959   XXYY   -4286.5933
      XYYY     385.4846   YYYY   -5901.2196   XXXZ    1508.9840
      XXYZ     602.2364   XYYZ     502.2833   YYYZ     432.8907
      XXZZ   -4210.3219   XYZZ     221.3407   YYZZ   -1677.1936
      XZZZ     567.4538   YZZZ     581.8497   ZZZZ   -3334.5549
 -----------------------------------------------------------------
 Calculating analytic gradient of the SCF energy
 Gradient of SCF Energy
            1           2           3           4           5           6
    1  -0.0178097   0.0141981  -0.0196593   0.0236496   0.0168315  -0.0908361
    2   0.0327915   0.0234473  -0.0205286  -0.0280756   0.0558588  -0.0652788
    3   0.0177465   0.0323088  -0.0451021  -0.0418920   0.0084106   0.0371542
            7           8           9          10          11          12
    1   0.1097320  -0.0172281  -0.0070091   0.0150102   0.0054304   0.0204603
    2  -0.0446666   0.0211322  -0.0701207  -0.0011124  -0.0086260  -0.0032471
    3  -0.0733591   0.0235155  -0.0185401   0.0002143   0.0016352   0.0172394
           13          14          15          16          17          18
    1   0.0123252   0.0078657   0.0107915  -0.0102482  -0.0018501   0.0012854
    2   0.0102279  -0.0142990   0.0531390   0.0189917  -0.0100022  -0.0079073
    3  -0.0301931  -0.0122338  -0.0058309   0.0018312  -0.0000203   0.0458578
           19          20          21          22          23          24
    1   0.0169216   0.0692541  -0.0788519  -0.0545017   0.0486329  -0.0018083
    2   0.0411352  -0.0378467   0.0626146   0.0137704  -0.0332539   0.0217502
    3  -0.0083836  -0.0393770   0.0738158  -0.0028140  -0.0361033   0.1148245
           25          26          27          28          29          30
    1  -0.1152909  -0.0145773   0.0271853   0.0038565  -0.0092105   0.0102015
    2  -0.0107241   0.0013115   0.0170795  -0.0045210  -0.0338430   0.0343356
    3  -0.0798868   0.0040998  -0.0296802   0.0233756  -0.0201520  -0.0338600
           31          32          33          34          35          36
    1  -0.0049510  -0.0178184   0.0135851   0.0094856  -0.0156526  -0.0256972
    2  -0.0071645   0.0220697  -0.0236479   0.0088107  -0.0249494   0.0114549
    3   0.0039856   0.0197748   0.0194052   0.0160776   0.0138051  -0.0286515
           37          38          39          40          41          42
    1  -0.0111688   0.0416020  -0.0172792   0.0216906  -0.0089980  -0.0379684
    2  -0.0063365   0.0022155  -0.0093308  -0.0047770   0.0191314  -0.0024738
    3  -0.0226510   0.0119252   0.0291984  -0.0091237   0.0349565  -0.0162888
           43          44          45          46          47          48
    1   0.0222944  -0.0209816  -0.0098826   0.0113435   0.0215687  -0.0045050
    2  -0.0334860   0.0466754   0.0025345  -0.0200226   0.0088023   0.0004781
    3  -0.0037073  -0.0034386  -0.0032261  -0.0181366   0.0170878  -0.0131016
           49          50          51          52          53          54
    1   0.0099144  -0.0052024   0.0012038  -0.0322090   0.0308383  -0.0003397
    2  -0.0239824   0.0216033  -0.0198476   0.0182052   0.0253533   0.0179193
    3   0.0095799   0.0278852  -0.0057375   0.0198373  -0.0018233   0.0096009
           55          56          57          58          59          60
    1  -0.0307757   0.0304475  -0.0017934   0.1094747  -0.0222220   0.0038511
    2  -0.0304753  -0.0182912   0.1212751  -0.0087632  -0.0509302   0.0129195
    3   0.0003742  -0.0169327   0.0301744  -0.0598524   0.0289068  -0.0000553
           61          62          63          64          65          66
    1   0.0173202  -0.0481446   0.0474863  -0.0160125  -0.0196366  -0.0156179
    2  -0.0024703  -0.0128334  -0.0085000  -0.0045785  -0.0127727  -0.0273474
    3   0.0141635  -0.0249451   0.0351294  -0.0136553  -0.0212060  -0.0039364
 Max gradient component =       1.213E-01
 RMS gradient           =       3.249E-02
 Computing fast CPCM-SWIG gradient
 Updating gradient with PCM contributions...
 -- total gradient after adding PCM contribution --
---------------------------------------------------
  Atom         X              Y              Z     
---------------------------------------------------
   1       0.000003      -0.000017       0.000035
   2      -0.000122       0.000040      -0.000092
   3       0.000018      -0.000001       0.000016
   4       0.000163      -0.000002       0.000030
   5      -0.000072      -0.000013      -0.000026
   6      -0.000013       0.000013       0.000040
   7       0.000027      -0.000027      -0.000035
   8       0.000018       0.000008       0.000027
   9      -0.000065      -0.000059       0.000037
  10      -0.000007      -0.000084       0.000084
  11       0.000047       0.000024       0.000065
  12      -0.000011       0.000020       0.000000
  13      -0.000032      -0.000018      -0.000001
  14      -0.000010      -0.000003      -0.000028
  15      -0.000026      -0.000002      -0.000018
  16       0.000046       0.000059       0.000042
  17       0.000072       0.000001      -0.000015
  18      -0.000023      -0.000001      -0.000006
  19      -0.000003      -0.000020      -0.000007
  20      -0.000041       0.000004      -0.000020
  21       0.000001       0.000014      -0.000018
  22       0.000004      -0.000051      -0.000015
  23       0.000012       0.000035      -0.000006
  24       0.000012      -0.000002      -0.000020
  25      -0.000028      -0.000017      -0.000011
  26      -0.000054       0.000006       0.000031
  27      -0.000013      -0.000008      -0.000014
  28       0.000000       0.000064       0.000029
  29       0.000003      -0.000021       0.000013
  30       0.000004      -0.000033      -0.000029
  31       0.000009      -0.000037      -0.000082
  32       0.000003      -0.000001       0.000015
  33       0.000000       0.000030       0.000023
  34      -0.000019      -0.000040      -0.000016
  35      -0.000002       0.000005      -0.000016
  36       0.000018       0.000004      -0.000007
  37       0.000046       0.000053      -0.000019
  38      -0.000018      -0.000005       0.000005
  39      -0.000002      -0.000010      -0.000013
  40      -0.000009       0.000018      -0.000021
  41       0.000002      -0.000006      -0.000010
  42       0.000016      -0.000008      -0.000008
  43      -0.000081      -0.000012       0.000026
  44       0.000031       0.000004      -0.000026
  45      -0.000013      -0.000036       0.000092
  46       0.000051       0.000022       0.000023
  47      -0.000043       0.000032       0.000027
  48       0.000023      -0.000011      -0.000032
  49      -0.000023      -0.000003      -0.000017
  50       0.000000      -0.000008       0.000018
  51      -0.000045       0.000048      -0.000078
  52       0.000037       0.000030       0.000032
  53       0.000024      -0.000047      -0.000023
  54      -0.000008      -0.000057       0.000141
  55       0.000029      -0.000021      -0.000021
  56       0.000005       0.000020       0.000006
  57       0.000009      -0.000008       0.000017
  58       0.000039      -0.000004      -0.000011
  59      -0.000047       0.000014       0.000014
  60       0.000080       0.000012      -0.000010
  61      -0.000086       0.000053      -0.000059
  62       0.000056       0.000022      -0.000081
  63       0.000001       0.000011       0.000014
  64       0.000011      -0.000001      -0.000004
  65       0.000006       0.000012       0.000009
  66      -0.000007       0.000012      -0.000002
---------------------------------------------------
 Number of fixed atoms: 0
 Gradient time:  CPU 19019.95 s  wall 1012.22 s

     Step 45	:
        Energy is -3128.6633288416
                            Maximum         Tolerance       Converged?
         Gradient           8.16667388e-05	3.00000000e-04	true
         Displacement       3.13897747e-03	1.20000000e-03	false
         Energy change      8.76264494e-07	1.00000000e-06	true

	 Optimization Converged in 45 cycles

 *****************************************************
             End of BFGS Algorithm
 *****************************************************
		----------------------------------
		   Verification of Optimization
		----------------------------------

 Eigenvalues of Hessian in Optimization Verification
   0.00085627   0.00205265   0.00464875   0.00708761   0.01085834
   0.01750097   0.02076319   0.03257963   0.03941483   0.07783271
   0.08011066   0.09973316   0.10000216   0.10000671   0.10001993
   0.10002475   0.10002916   0.10004428   0.10007797   0.10010814
   0.10015369   0.10019644   0.10023785   0.10030654   0.10042485
   0.10055908   0.10111936   0.10143117   0.10269846   0.10319783
   0.10553602   0.10609094   0.10704242   0.10961863   0.10985855
   0.11336052   0.11426417   0.11549176   0.11702287   0.11766392
   0.11911777   0.12126614   0.12287487   0.12305538   0.12408265
   0.12499733   0.12585439   0.12720456   0.12752214   0.12825421
   0.12866756   0.13009006   0.13192192   0.13295892   0.13449175
   0.13563954   0.13633911   0.13754863   0.13819361   0.13850793
   0.13945971   0.14005149   0.14201917   0.14471339   0.14817184
   0.14957593   0.15106563   0.15179493   0.15229983   0.15471710
   0.15526116   0.15663375   0.15699484   0.15874470   0.16141541
   0.16235650   0.16689614   0.17181108   0.17319689   0.17577759
   0.17651220   0.17843009   0.17941247   0.18036064   0.18223599
   0.18392884   0.18482021   0.18640061   0.18841528   0.19087849
   0.19190383   0.19319258   0.19592306   0.19740708   0.19783759
   0.19880298   0.19910751   0.19916350   0.19933248   0.19945730
   0.19973551   0.19986009   0.19995447   0.19998721   0.20007468
   0.20103702   0.20159514   0.20222976   0.20319467   0.20570558
   0.20835839   0.20978690   0.21605377   0.21981489   0.23081566
   0.25831961   0.26202641   0.28480467   0.28992640   0.29812725
   0.30773419   0.33041516   0.34000858   0.37752878   0.39934017
   0.41366584   0.41790422   0.43731871   0.43868213   0.44641673
   0.45924382   0.46664415   0.46934856   0.47106402   0.47554772
   0.48180569   0.48299527   0.49024045   0.49334824   0.49380693
   0.49792931   0.49839423   0.49889146   0.49968145   0.49969607
   0.49981504   0.49983602   0.49992065   0.49996320   0.49997180
   0.49998275   0.49998588   0.49999900   0.49999978   0.50000000
   0.50000000   0.50000000   0.50000000   0.50000001   0.50000001
   0.50000002   0.50000006   0.50000023   0.50000030   0.50000044
   0.50000053   0.50000069   0.50000102   0.50000285   0.50000490
   0.50000713   0.50001426   0.50003871   0.50007899   0.50020805
   0.50030877   0.50047699   0.50161788   0.50259392   0.50399246
   0.50658308   0.50829232   0.51105809   0.51487072   0.52068397
   0.52801385   0.53671373   0.53882906   0.54888894   0.56833203
   0.61501784   0.83623500

 Found a minimum
		---------------------------------
		       End of Verification
		---------------------------------

 Final energy is -3128.663328841591

	******************************
	**  OPTIMIZATION CONVERGED  **
	******************************
 Adding empirical dispersion correction 
 ----------------------------------------------------------------
 Doing -D3(BJ) with
 s6  =   1.00000
 s8  =   1.98890
 a1  =   0.39810
 a2  =   4.42110
 -D3 energy without 3body term =     -0.1609719245 hartrees
 ----------------------------------------------------------------
             Standard Nuclear Orientation (Angstroms)
    I     Atom           X                Y                Z
 ----------------------------------------------------------------
    1      N      -2.7641350513     1.9762579681    -1.7690689308
    2      C      -3.6960681090    -0.9254210615     1.5867515971
    3      H      -3.2985143037    -0.5238464955     2.5357553536
    4      N      -2.6734314094    -1.7127410561     0.9157488769
    5      H      -2.9869539818    -2.6792079082     0.7867131716
    6      C      -4.8607962479    -1.9038374569     1.9482932964
    7      O      -5.8186011891    -1.3976080842     2.5794575992
    8      C      -1.5522860851    -1.2603377939     0.3463812893
    9      O      -1.2264289394    -0.0295474621     0.5113620347
   10      C      -2.4619164398     2.8429919216    -0.8086257100
   11      C      -3.4488576553     3.8796392387    -0.3612407297
   12      H      -4.2711254488     4.0280625925    -1.0702212409
   13      H      -3.8707299705     3.5805777444     0.6117470618
   14      C      -0.7512971056    -2.1953058742    -0.4103569560
   15      H      -0.9557241899    -3.2571546732    -0.2718976964
   16      C       0.1949459636    -1.8210597030    -1.3411829075
   17      C       1.0304695335    -2.8871881432    -2.0134648947
   18      H       1.0270794192    -2.7279031859    -3.1023910658
   19      H       0.6223836271    -3.8912407917    -1.8210397720
   20      C       2.5079687250    -2.9069979748    -1.5961815244
   21      O       3.3416503859    -3.4863510188    -2.3060485185
   22      N       2.8157652817    -2.2908934159    -0.4416855340
   23      H       2.0987657943    -1.8982737249     0.1688453595
   24      C       4.0524077009    -1.6338979616     1.5661855924
   25      O       5.1417303427    -1.4828313876     2.1710534271
   26      C       2.2472223772     2.3749609634    -1.3272351588
   27      N       2.3820307208     1.8367498595    -0.1206209362
   28      C       3.5947035685     1.6346381057     0.6893005871
   29      H       3.8258133009     2.5640175924     1.2352807161
   30      H       3.2731483231     0.8767869468     1.4130980737
   31      C       3.3619226329     3.1343277970    -1.9823742310
   32      H       3.9556624949     2.4640819813    -2.6231767464
   33      H       2.9106233833     3.9050535884    -2.6214488967
   34      C       4.8424928558     1.1390708277    -0.0612499851
   35      H       5.3509655848     1.9951496594    -0.5260349233
   36      H       5.5220913835     0.7734012459     0.7243484258
   37      C       4.6255738599     0.0371421544    -1.1245515095
   38      H       3.5609670480    -0.0138974837    -1.4066932472
   39      H       5.1566591083     0.3438420112    -2.0397052616
   40      C       5.1069105411    -1.3769270686    -0.7672006347
   41      H       5.2518374397    -1.9389729980    -1.7017394719
   42      H       6.0796922804    -1.3341733958    -0.2528389892
   43      C       4.1544793595    -2.2000822091     0.1205641021
   44      H       4.5827946352    -3.2155458912     0.2012062211
   45      C      -5.1296610758     1.1168066371    -1.4796513649
   46      H      -5.5372763469     1.8772775463    -0.7921258021
   47      H      -5.9646195810     0.8349428610    -2.1425719224
   48      C      -4.0753494409     1.7597176232    -2.3931428394
   49      H      -4.4459575346     2.7158040094    -2.7920686038
   50      H      -3.8566574193     1.1078504100    -3.2481819208
   51      C      -4.6542274482    -0.1041991606    -0.6682212473
   52      H      -3.8295596695    -0.6059252856    -1.2009934690
   53      H      -5.4744966382    -0.8392808189    -0.6076926306
   54      C      -4.2109355558     0.2615932917     0.7531216511
   55      H      -3.4333219925     1.0341810034     0.7162628373
   56      H      -5.0669589689     0.6766334392     1.3082871650
   57      O      -4.7324251033    -3.1014682956     1.5648756928
   58      O       2.8916844190    -1.3723949952     1.9962921417
   59      O       0.4661537049    -0.6021803820    -1.7138362918
   60      Fe     -0.2298055078     1.0753710264    -0.8722312259
   61      O      -1.7985751488     1.0757908939    -2.1156328080
   62      O      -1.3098053087     2.7742734825    -0.2637367535
   63      O       1.1203932786     2.2548741222    -1.9237232945
   64      O       1.2655058721     1.2646500874     0.4132998330
   65      H       4.0305272861     3.6101619388    -1.2544695031
   66      H      -2.9113442653     4.8279431868    -0.2178329570
 ----------------------------------------------------------------
 Nuclear Repulsion Energy =        5352.94454841 hartrees
 There are      152 alpha and      147 beta electrons

Z-matrix Print:
$molecule
-2 6
Fe
O  1 1.981003
N  2 1.363451 1 113.834583
C  3 1.328067 2 116.276606 1 10.531560 0
O  4 1.280610 3 118.327010 2 -3.785234 0
C  3 1.472208 2 113.671770 1 -163.535049 0
H  6 1.096184 3 102.505668 2 11.618742 0
H  6 1.102385 3 109.233355 2 -103.319414 0
C  4 1.499467 3 121.784860 2 174.890401 0
H  9 1.096948 4 112.511137 3 -28.419223 0
H  9 1.098228 4 107.707826 3 -149.069759 0
H  9 1.101083 4 110.295940 3 93.208530 0
C  6 1.538145 3 116.359608 2 131.329911 0
H  13 1.098836 6 109.315856 3 82.842523 0
H  13 1.101242 6 105.041065 3 -163.842339 0
C  13 1.546580 6 116.824158 3 -41.776630 0
H  16 1.101645 13 107.767580 6 132.035170 0
H  16 1.102541 13 110.142213 6 17.526424 0
C  16 1.535896 13 116.876020 6 -107.045669 0
H  19 1.100119 16 108.301036 13 -158.440445 0
H  19 1.101227 16 110.473108 13 -40.986163 0
C  19 1.540401 16 115.614283 13 81.117130 0
H  22 1.105045 19 107.065335 16 174.212073 0
N  22 1.454829 19 112.307476 16 54.459700 0
H  24 1.020287 22 113.039971 19 -119.961067 0
C  24 1.344316 22 124.833658 19 64.637145 0
O  26 1.238784 24 123.529972 22 0.971840 0
C  26 1.535422 24 116.603109 22 -179.927583 0
H  28 1.100520 26 105.886924 24 140.286903 0
H  28 1.100765 26 107.305533 24 -104.905743 0
C  28 1.512181 26 114.831911 24 19.168713 0
O  31 1.303108 28 114.665798 26 69.728644 0
C  31 1.379084 28 119.199890 26 -109.806578 0
H  33 1.090176 31 118.601096 28 -7.309010 0
C  33 1.445130 31 123.929518 28 176.427847 0
O  35 1.283840 33 123.151509 31 -19.990384 0
N  35 1.336344 33 117.975320 31 161.098537 0
H  37 1.024209 35 121.506222 33 -2.965714 0
C  37 1.454614 35 127.093734 33 -172.541298 0
H  39 1.104500 37 109.882468 35 -69.385236 0
C  39 1.539166 37 113.750224 35 51.538885 0
H  41 1.096783 39 108.922116 37 -72.297408 0
H  41 1.101473 39 106.115806 37 172.112586 0
C  41 1.533143 39 114.508881 37 51.311637 0
H  44 1.102566 41 109.894101 39 -55.826761 0
H  44 1.103109 41 108.851917 39 60.123845 0
C  44 1.541204 41 112.846990 39 -178.590608 0
H  47 1.102754 44 110.338915 41 -144.363104 0
H  47 1.103249 44 109.388223 41 -28.455436 0
C  47 1.536025 44 115.656052 41 95.866764 0
H  50 1.097200 47 110.584722 44 71.044778 0
H  50 1.100270 47 110.373085 44 -170.120303 0
N  50 1.468210 47 114.957016 44 -46.250582 0
C  53 1.328539 50 127.348706 47 -69.134507 0
O  54 1.276317 53 118.610625 50 170.939733 0
O  53 1.365010 50 115.246562 47 102.711884 0
C  54 1.499615 53 121.127747 50 -8.733308 0
H  57 1.095813 54 113.231925 53 -16.561637 0
H  57 1.099439 54 108.264524 53 -138.223558 0
H  57 1.101871 54 109.134981 53 104.666015 0
C  22 1.555894 19 112.431525 16 -68.581341 0
O  61 1.255114 22 115.761655 19 -54.022308 0
O  61 1.265170 22 116.825065 19 125.630891 0
C  39 1.563523 37 106.958247 35 174.483359 0
O  64 1.253805 39 115.646392 37 177.660304 0
O  64 1.264044 39 116.558145 37 -2.824798 0
$end

 -----------------------------------------------------------------------
                  END OF GEOMETRY OPTIMIZER USING LIBOPT3               
 -----------------------------------------------------------------------
 Total job time:  117713.30s(wall), 1915451.54s(cpu) 
 Thu Jan 25 19:24:19 2024

        *************************************************************
        *                                                           *
        *  Thank you very much for using Q-Chem.  Have a nice day.  *
        *                                                           *
        *************************************************************


