
Running Job 1 of 1 C_FeABstar_enol_ctL_N_3sexet_SkS_camb3lyp_augccpVDZ_pcmH2O_tddft100.in
qchem C_FeABstar_enol_ctL_N_3sexet_SkS_camb3lyp_augccpVDZ_pcmH2O_tddft100.in_2141588.0 /data/scratch/C_FeABstar_enol_ctL_N_3sexet_SkS_camb3lyp_augccpVDZ_pcmH2O_tddft10020240218083708/ 0
/opt/qchem/6.0.1/exe/qcprog.exe_s C_FeABstar_enol_ctL_N_3sexet_SkS_camb3lyp_augccpVDZ_pcmH2O_tddft100.in_2141588.0 /data/scratch/C_FeABstar_enol_ctL_N_3sexet_SkS_camb3lyp_augccpVDZ_pcmH2O_tddft10020240218083708/
                  Welcome to Q-Chem
     A Quantum Leap Into The Future Of Chemistry


 Q-Chem 6.0, Q-Chem, Inc., Pleasanton, CA (2022)

 E. Epifanovsky,  A. T. B. Gilbert,  Xintian Feng,  Joonho Lee,  Yuezhi Mao,  
 N. Mardirossian,  P. Pokhilko,  A. White,  M. Wormit,  M. P. Coons,  
 A. L. Dempwolff,  Zhengting Gan,  D. Hait,  P. R. Horn,  L. D. Jacobson,  
 I. Kaliman,  J. Kussmann,  A. W. Lange,  Ka Un Lao,  D. S. Levine,  Jie Liu,  
 S. C. McKenzie,  A. F. Morrison,  K. Nanda,  F. Plasser,  D. R. Rehn,  
 M. L. Vidal,  Zhi-Qiang You,  Ying Zhu,  B. Alam,  B. Albrecht,  
 A. Aldossary,  E. Alguire,  J. H. Andersen,  V. Athavale,  D. Barton,  
 K. Begam,  A. Behn,  N. Bellonzi,  Y. A. Bernard,  E. J. Berquist,  
 H. Burton,  A. Carreras,  K. Carter-Fenk,  Romit Chakraborty,  
 Chandrima Chakravarty,  Junhan Chen,  A. D. Chien,  K. D. Closser,  
 V. Cofer-Shabica,  L. Cunha,  S. Dasgupta,  Jia Deng,  M. de Wergifosse,  
 M. Diedenhofen,  Hainam Do,  S. Ehlert,  Po-Tung Fang,  S. Fatehi,  
 Qingguo Feng,  T. Friedhoff,  B. Ganoe,  J. Gayvert,  Qinghui Ge,  
 G. Gidofalvi,  M. Goldey,  J. Gomes,  C. Gonzalez-Espinoza,  S. Gulania,  
 A. Gunina,  J. A. Gyamfi,  M. W. D. Hanson-Heine,  P. H. P. Harbach,  
 A. W. Hauser,  M. F. Herbst,  M. Hernandez Vera,  M. Hodecker,  
 Z. C. Holden,  S. Houck,  Xunkun Huang,  Kerwin Hui,  B. C. Huynh,  
 K. Ikeda,  M. Ivanov,  Hyunjun Ji,  Zuxin Jin,  Hanjie Jiang,  B. Kaduk,  
 S. Kaehler,  R. Kang,  K. Khistyaev,  Jaehoon Kim,  Yongbin Kim,  
 P. Klunzinger,  Z. Koczor-Benda,  Joong Hoon Koh,  D. Kosenkov,  
 Saikiran Kotaru,  L. Koulias,  T. Kowalczyk,  C. M. Krauter,  K. Kue,  
 A. Kunitsa,  T. Kus,  A. Landau,  K. V. Lawler,  D. Lefrancois,  S. Lehtola,  
 Rain Li,  Shaozhi Li,  Yi-Pei Li,  Jiashu Liang,  M. Liebenthal,  
 Hung-Hsuan Lin,  You-Sheng Lin,  Fenglai Liu,  Kuan-Yu Liu,  
 M. Loipersberger,  A. Luenser,  C. Malbon,  A. Manjanath,  P. Manohar,  
 E. Mansoor,  S. F. Manzer,  Shan-Ping Mao,  A. V. Marenich,  T. Markovich,  
 S. Mason,  F. Matz,  S. A. Maurer,  P. F. McLaughlin,  M. F. S. J. Menger,  
 J.-M. Mewes,  S. A. Mewes,  P. Morgante,  Mohammad Mostafanejad,  
 J. W. Mullinax,  K. J. Oosterbaan,  G. Paran,  V. Parravicini,  
 Alexander C. Paul,  Suranjan K. Paul,  F. Pavosevic,  Zheng Pei,  S. Prager,  
 E. I. Proynov,  E. Ramos,  B. Rana,  A. E. Rask,  A. Rettig,  R. M. Richard,  
 F. Rob,  E. Rossomme,  T. Scheele,  M. Scheurer,  M. Schneider,  
 P. E. Schneider,  N. Sergueev,  S. M. Sharada,  Hengyuan Shen,  
 W. Skomorowski,  D. W. Small,  C. J. Stein,  Yingli Su,  Yu-Chuan Su,  
 E. J. Sundstrom,  Zhen Tao,  J. Thirman,  Hung-Yi Tsai,  T. Tsuchimochi,  
 N. M. Tubman,  C. Utku,  S. P. Veccham,  O. Vydrov,  J. Wenzel,  
 Jonathan Wong,  J. Witte,  A. Yamada,  Chou-Hsun Yang,  Kun Yao,  
 S. Yeganeh,  S. R. Yost,  A. Zech,  F. Zeller,  Igor Ying Zhang,  
 Xing Zhang,  Yu Zhang,  D. Zuev,  A. Aspuru-Guzik,  A. T. Bell,  
 N. A. Besley,  K. B. Bravaya,  B. R. Brooks,  D. Casanova,  Jeng-Da Chai,  
 Hsing-Ta Chen,  S. Coriani,  C. J. Cramer,  A. E. DePrince, III,  
 R. A. DiStasio Jr.,  A. Dreuw,  B. D. Dunietz,  T. R. Furlani,  
 W. A. Goddard III,  S. Grimme,  S. Hammes-Schiffer,  T. Head-Gordon,  
 W. J. Hehre,  Chao-Ping Hsu,  T.-C. Jagau,  Yousung Jung,  A. Klamt,  
 Jing Kong,  D. S. Lambrecht,  Xiangyuan Li,  WanZhen Liang,  N. J. Mayhall,  
 C. W. McCurdy,  J. B. Neaton,  T. Neudecker,  C. Ochsenfeld,  
 J. A. Parkhill,  R. Peverati,  V. A. Rassolov,  Haisheng Ren,  Yihan Shao,  
 L. V. Slipchenko,  R. P. Steele,  J. E. Subotnik,  A. J. W. Thom,  
 A. Tkatchenko,  D. G. Truhlar,  T. Van Voorhis,  Fan Wang,  
 T. A. Wesolowski,  K. B. Whaley,  H. L. Woodcock III,  P. M. Zimmerman,  
 S. Faraji,  P. M. W. Gill,  M. Head-Gordon,  J. M. Herbert,  A. I. Krylov

 Contributors to earlier versions of Q-Chem not listed above: 
 R. D. Adamson,  B. Austin,  R. Baer,  J. Baker,  G. J. O. Beran,  
 K. Brandhorst,  S. T. Brown,  E. F. C. Byrd,  Arup K. Chakraborty,  
 G. K. L. Chan,  Chun-Min Chang,  Yunqing Chen,  C.-L. Cheng,  
 Siu Hung Chien,  D. M. Chipman,  D. L. Crittenden,  H. Dachsel,  
 R. J. Doerksen,  A. D. Dutoi,  R. G. Edgar,  J. Fosso-Tande,  
 L. Fusti-Molnar,  D. Ghosh,  A. Ghysels,  A. Golubeva-Zadorozhnaya,  
 J. Gonthier,  M. S. Gordon,  S. R. Gwaltney,  G. Hawkins,  J. E. Herr,  
 A. Heyden,  S. Hirata,  E. G. Hohenstein,  G. Kedziora,  F. J. Keil,  
 C. Kelley,  Jihan Kim,  R. A. King,  R. Z. Khaliullin,  P. P. Korambath,  
 W. Kurlancheek,  A. Laurent,  A. M. Lee,  M. S. Lee,  S. V. Levchenko,  
 Ching Yeh Lin,  D. Liotard,  E. Livshits,  R. C. Lochan,  I. Lotan,  
 L. A. Martinez-Martinez,  P. E. Maslen,  N. Nair,  D. P. O'Neill,  
 D. Neuhauser,  E. Neuscamman,  C. M. Oana,  R. Olivares-Amaya,  R. Olson,  
 T. M. Perrine,  B. Peters,  P. A. Pieniazek,  A. Prociuk,  Y. M. Rhee,  
 J. Ritchie,  M. A. Rohrdanz,  E. Rosta,  N. J. Russ,  H. F. Schaefer III,  
 M. W. Schmidt,  N. E. Schultz,  S. Sharma,  N. Shenvi,  C. D. Sherrill,  
 A. C. Simmonett,  A. Sodt,  T. Stein,  D. Stuck,  K. S. Thanthiriwatte,  
 V. Vanovschi,  L. Vogt,  Tao Wang,  A. Warshel,  M. A. Watson,  
 C. F. Williams,  Q. Wu,  X. Xu,  Jun Yang,  W. Zhang,  Yan Zhao

   Please cite Q-Chem as follows:
  "Software for the frontiers of quantum chemistry:
   An overview of developments in the Q-Chem 5 package"
   J. Chem. Phys. 155, 084801 (2021)
   https://doi.org/10.1063/5.0055522 (open access)

 Q-Chem 6.0.2 for Intel X86 EM64T Linux

 Parts of Q-Chem use Armadillo 9.900.5 (Nocturnal Misbehaviour).
 http://arma.sourceforge.net/

 Q-Chem begins on Wed Feb 21 08:10:03 2024  

 Host: 
0

     Scratch files written to /data/scratch/C_FeABstar_enol_ctL_N_3sexet_SkS_camb3lyp_augccpVDZ_pcmH2O_tddft10020240218083708//
 Dec722 |scratch|qcdevops|jenkins|workspace|build_RNUM 8907   
 Processing $rem in /opt/qchem/6.0.1/config/preferences:
 Processing $rem in /home/sgardner/.qchemrc:
 Symmetry turned off for PCM/SM12/SMD calculation

 Checking the input file for inconsistencies... 	...done.

--------------------------------------------------------------
User input:
--------------------------------------------------------------
$molecule
-2 6
N   -2.7641351    1.9762580   -1.7690689
C   -3.6960681   -0.9254211    1.5867516
H   -3.2985143   -0.5238465    2.5357554
N   -2.6734314   -1.7127411    0.9157489
H   -2.9869540   -2.6792079    0.7867132
C   -4.8607962   -1.9038375    1.9482933
O   -5.8186012   -1.3976081    2.5794576
C   -1.5522861   -1.2603378    0.3463813
O   -1.2264289   -0.0295475    0.5113620
C   -2.4619164    2.8429919   -0.8086257
C   -3.4488577    3.8796392   -0.3612407
H   -4.2711254    4.0280626   -1.0702212
H   -3.8707300    3.5805777    0.6117471
C   -0.7512971   -2.1953059   -0.4103570
H   -0.9557242   -3.2571547   -0.2718977
C    0.1949460   -1.8210597   -1.3411829
C    1.0304695   -2.8871881   -2.0134649
H    1.0270794   -2.7279032   -3.1023911
H    0.6223836   -3.8912408   -1.8210398
C    2.5079687   -2.9069980   -1.5961815
O    3.3416504   -3.4863510   -2.3060485
N    2.8157653   -2.2908934   -0.4416855
H    2.0987658   -1.8982737    0.1688454
C    4.0524077   -1.6338980    1.5661856
O    5.1417303   -1.4828314    2.1710534
C    2.2472224    2.3749610   -1.3272352
N    2.3820307    1.8367499   -0.1206209
C    3.5947036    1.6346381    0.6893006
H    3.8258133    2.5640176    1.2352807
H    3.2731483    0.8767869    1.4130981
C    3.3619226    3.1343278   -1.9823742
H    3.9556625    2.4640820   -2.6231767
H    2.9106234    3.9050536   -2.6214489
C    4.8424929    1.1390708   -0.0612500
H    5.3509656    1.9951497   -0.5260349
H    5.5220914    0.7734012    0.7243484
C    4.6255739    0.0371422   -1.1245515
H    3.5609670   -0.0138975   -1.4066932
H    5.1566591    0.3438420   -2.0397053
C    5.1069105   -1.3769271   -0.7672006
H    5.2518374   -1.9389730   -1.7017395
H    6.0796923   -1.3341734   -0.2528390
C    4.1544794   -2.2000822    0.1205641
H    4.5827946   -3.2155459    0.2012062
C   -5.1296611    1.1168066   -1.4796514
H   -5.5372763    1.8772775   -0.7921258
H   -5.9646196    0.8349429   -2.1425719
C   -4.0753494    1.7597176   -2.3931428
H   -4.4459575    2.7158040   -2.7920686
H   -3.8566574    1.1078504   -3.2481819
C   -4.6542274   -0.1041992   -0.6682212
H   -3.8295597   -0.6059253   -1.2009935
H   -5.4744966   -0.8392808   -0.6076926
C   -4.2109356    0.2615933    0.7531217
H   -3.4333220    1.0341810    0.7162628
H   -5.0669590    0.6766334    1.3082872
O   -4.7324251   -3.1014683    1.5648757
O    2.8916844   -1.3723950    1.9962921
O    0.4661537   -0.6021804   -1.7138363
Fe   -0.2298055    1.0753710   -0.8722312
O   -1.7985751    1.0757909   -2.1156328
O   -1.3098053    2.7742735   -0.2637368
O    1.1203933    2.2548741   -1.9237233
O    1.2655059    1.2646501    0.4132998
H    4.0305273    3.6101619   -1.2544695
H   -2.9113443    4.8279432   -0.2178330
$end

$rem
BASIS  =  gen
CIS_N_ROOTS  =  100
EXCHANGE  =  CAM-B3LYP
GUI  =  2
JOB_TYPE  =  SP
SCF_CONVERGENCE  =  8
SOLVENT_METHOD  =  PCM
UNRESTRICTED  =  1
BASIS GEN
PURECART 11
$end

$pcm
THEORY  CPCM
$end

$solvent
DIELECTRIC  78.39
$end

$van_der_waals
26   2.44
$end

!----------------------------------------------------------------------
! Basis Set Exchange
! Basis set: aug-cc-pVDZ
!----------------------------------------------------------------------

$basis
H     0
S   4   1.00
1.301000D+01           1.968500D-02
1.962000D+00           1.379770D-01
4.446000D-01           4.781480D-01
1.220000D-01           5.012400D-01
S   1   1.00
1.220000D-01           1.000000D+00
S   1   1.00
0.0297400              1.0000000
P   1   1.00
7.270000D-01           1.0000000
P   1   1.00
0.1410000              1.0000000
****
C     0
S   9   1.00
6.665000D+03           6.920000D-04
1.000000D+03           5.329000D-03
2.280000D+02           2.707700D-02
6.471000D+01           1.017180D-01
2.106000D+01           2.747400D-01
7.495000D+00           4.485640D-01
2.797000D+00           2.850740D-01
5.215000D-01           1.520400D-02
1.596000D-01          -3.191000D-03
S   9   1.00
6.665000D+03          -1.460000D-04
1.000000D+03          -1.154000D-03
2.280000D+02          -5.725000D-03
6.471000D+01          -2.331200D-02
2.106000D+01          -6.395500D-02
7.495000D+00          -1.499810D-01
2.797000D+00          -1.272620D-01
5.215000D-01           5.445290D-01
1.596000D-01           5.804960D-01
S   1   1.00
1.596000D-01           1.000000D+00
S   1   1.00
0.0469000              1.0000000
P   4   1.00
9.439000D+00           3.810900D-02
2.002000D+00           2.094800D-01
5.456000D-01           5.085570D-01
1.517000D-01           4.688420D-01
P   1   1.00
1.517000D-01           1.000000D+00
P   1   1.00
0.0404100              1.0000000
D   1   1.00
5.500000D-01           1.0000000
D   1   1.00
0.1510000              1.0000000
****
N     0
S   9   1.00
9.046000D+03           7.000000D-04
1.357000D+03           5.389000D-03
3.093000D+02           2.740600D-02
8.773000D+01           1.032070D-01
2.856000D+01           2.787230D-01
1.021000D+01           4.485400D-01
3.838000D+00           2.782380D-01
7.466000D-01           1.544000D-02
2.248000D-01          -2.864000D-03
S   9   1.00
9.046000D+03          -1.530000D-04
1.357000D+03          -1.208000D-03
3.093000D+02          -5.992000D-03
8.773000D+01          -2.454400D-02
2.856000D+01          -6.745900D-02
1.021000D+01          -1.580780D-01
3.838000D+00          -1.218310D-01
7.466000D-01           5.490030D-01
2.248000D-01           5.788150D-01
S   1   1.00
2.248000D-01           1.000000D+00
S   1   1.00
0.0612400              1.0000000
P   4   1.00
1.355000D+01           3.991900D-02
2.917000D+00           2.171690D-01
7.973000D-01           5.103190D-01
2.185000D-01           4.622140D-01
P   1   1.00
2.185000D-01           1.000000D+00
P   1   1.00
0.0561100              1.0000000
D   1   1.00
8.170000D-01           1.0000000
D   1   1.00
0.2300000              1.0000000
****
O     0
S   9   1.00
1.172000D+04           7.100000D-04
1.759000D+03           5.470000D-03
4.008000D+02           2.783700D-02
1.137000D+02           1.048000D-01
3.703000D+01           2.830620D-01
1.327000D+01           4.487190D-01
5.025000D+00           2.709520D-01
1.013000D+00           1.545800D-02
3.023000D-01          -2.585000D-03
S   9   1.00
1.172000D+04          -1.600000D-04
1.759000D+03          -1.263000D-03
4.008000D+02          -6.267000D-03
1.137000D+02          -2.571600D-02
3.703000D+01          -7.092400D-02
1.327000D+01          -1.654110D-01
5.025000D+00          -1.169550D-01
1.013000D+00           5.573680D-01
3.023000D-01           5.727590D-01
S   1   1.00
3.023000D-01           1.000000D+00
S   1   1.00
0.0789600              1.0000000
P   4   1.00
1.770000D+01           4.301800D-02
3.854000D+00           2.289130D-01
1.046000D+00           5.087280D-01
2.753000D-01           4.605310D-01
P   1   1.00
2.753000D-01           1.000000D+00
P   1   1.00
0.0685600              1.0000000
D   1   1.00
1.185000D+00           1.0000000
D   1   1.00
0.3320000              1.0000000
****
Fe     0
S   20   1.00
4.316265D+06           8.048803D-06
6.463424D+05           6.258306D-05
1.470897D+05           3.290239D-04
4.166152D+04           1.387355D-03
1.359077D+04           5.023256D-03
4.905750D+03           1.610140D-02
1.912746D+03           4.590034D-02
7.926043D+02           1.136154D-01
3.448065D+02           2.283869D-01
1.558999D+02           3.221159D-01
7.223091D+01           2.383661D-01
3.272506D+01           7.404667D-02
1.566762D+01           9.214197D-02
7.503483D+00           9.339790D-02
3.312223D+00           1.573965D-02
1.558471D+00          -4.186682D-04
6.839140D-01           5.376318D-05
1.467570D-01          -3.816654D-05
7.058300D-02           4.319603D-05
3.144900D-02          -3.401019D-06
S   20   1.00
4.316265D+06          -4.155954D-06
6.463424D+05          -3.231401D-05
1.470897D+05          -1.699525D-04
4.166152D+04          -7.171369D-04
1.359077D+04          -2.603625D-03
4.905750D+03          -8.399109D-03
1.912746D+03          -2.434109D-02
7.926043D+02          -6.251948D-02
3.448065D+02          -1.365929D-01
1.558999D+02          -2.312707D-01
7.223091D+01          -2.383734D-01
3.272506D+01           3.123837D-02
1.566762D+01           5.086818D-01
7.503483D+00           4.987695D-01
3.312223D+00           9.033552D-02
1.558471D+00          -6.005337D-03
6.839140D-01           2.312454D-04
1.467570D-01          -5.643680D-04
7.058300D-02           4.992260D-04
3.144900D-02          -1.015293D-04
S   20   1.00
4.316265D+06           9.532178D-07
6.463424D+05           7.414605D-06
1.470897D+05           3.898393D-05
4.166152D+04           1.647152D-04
1.359077D+04           5.985980D-04
4.905750D+03           1.942390D-03
1.912746D+03           5.687237D-03
7.926043D+02           1.501329D-02
3.448065D+02           3.452455D-02
1.558999D+02           6.495820D-02
7.223091D+01           7.716194D-02
3.272506D+01          -1.873411D-02
1.566762D+01          -3.009185D-01
7.503483D+00          -4.554661D-01
3.312223D+00           1.286463D-01
1.558471D+00           7.183316D-01
6.839140D-01           4.051743D-01
1.467570D-01           2.168227D-02
7.058300D-02          -8.343566D-03
3.144900D-02           3.658979D-03
S   20   1.00
4.316265D+06          -2.063008D-07
6.463424D+05          -1.604169D-06
1.470897D+05          -8.438437D-06
4.166152D+04          -3.563151D-05
1.359077D+04          -1.295998D-04
4.905750D+03          -4.201534D-04
1.912746D+03          -1.231954D-03
7.926043D+02          -3.248922D-03
3.448065D+02          -7.493717D-03
1.558999D+02          -1.410102D-02
7.223091D+01          -1.691600D-02
3.272506D+01           4.218996D-03
1.566762D+01           6.833810D-02
7.503483D+00           1.098201D-01
3.312223D+00          -4.009005D-02
1.558471D+00          -2.174739D-01
6.839140D-01          -2.465135D-01
1.467570D-01           2.731435D-01
7.058300D-02           5.748321D-01
3.144900D-02           3.012713D-01
S   20   1.00
4.316265D+06          -4.009367D-07
6.463424D+05          -3.189255D-06
1.470897D+05          -1.623079D-05
4.166152D+04          -7.157920D-05
1.359077D+04          -2.463958D-04
4.905750D+03          -8.544907D-04
1.912746D+03          -2.307593D-03
7.926043D+02          -6.728292D-03
3.448065D+02          -1.366165D-02
1.558999D+02          -3.062240D-02
7.223091D+01          -2.631137D-02
3.272506D+01          -9.760183D-03
1.566762D+01           1.801906D-01
7.503483D+00           1.529634D-01
3.312223D+00           5.505413D-02
1.558471D+00          -9.551364D-01
6.839140D-01           2.586813D-01
1.467570D-01           1.834049D+00
7.058300D-02          -9.333240D-01
3.144900D-02          -6.981605D-01
S   1   1.00
3.144900D-02           1.000000D+00
S   1   1.00
1.401000D-02           1.000000D+00
P   16   1.00
1.774569D+04           4.100000D-05
4.200721D+03           3.690000D-04
1.364429D+03           2.129000D-03
5.220806D+02           9.369000D-03
2.214595D+02           3.309700D-02
1.009096D+02           9.443100D-02
4.840115D+01           2.080770D-01
2.398536D+01           3.323330D-01
1.218250D+01           3.329870D-01
6.242298D+00           1.568430D-01
3.110944D+00           2.154900D-02
1.509958D+00          -2.095000D-03
7.108450D-01          -1.739000D-03
2.731900D-01          -3.000000D-04
1.042330D-01           2.900000D-05
3.829100D-02          -1.100000D-05
P   16   1.00
1.774569D+04          -1.500000D-05
4.200721D+03          -1.300000D-04
1.364429D+03          -7.510000D-04
5.220806D+02          -3.329000D-03
2.214595D+02          -1.191200D-02
1.009096D+02          -3.493300D-02
4.840115D+01          -7.998900D-02
2.398536D+01          -1.346360D-01
1.218250D+01          -1.385980D-01
6.242298D+00           3.027800D-02
3.110944D+00           3.332160D-01
1.509958D+00           4.561530D-01
7.108450D-01           2.850510D-01
2.731900D-01           4.614400D-02
1.042330D-01          -3.249000D-03
3.829100D-02           1.357000D-03
P   16   1.00
1.774569D+04           5.000000D-06
4.200721D+03           4.200000D-05
1.364429D+03           2.410000D-04
5.220806D+02           1.085000D-03
2.214595D+02           3.831000D-03
1.009096D+02           1.142300D-02
4.840115D+01           2.579200D-02
2.398536D+01           4.481800D-02
1.218250D+01           4.459800D-02
6.242298D+00          -1.117700D-02
3.110944D+00          -1.381340D-01
1.509958D+00          -1.882850D-01
7.108450D-01          -1.073990D-01
2.731900D-01           4.448630D-01
1.042330D-01           6.402390D-01
3.829100D-02           6.445700D-02
P   16   1.00
1.774569D+04           3.000000D-06
4.200721D+03           2.900000D-05
1.364429D+03           1.650000D-04
5.220806D+02           7.340000D-04
2.214595D+02           2.626000D-03
1.009096D+02           7.725000D-03
4.840115D+01           1.773300D-02
2.398536D+01           3.005500D-02
1.218250D+01           3.109400D-02
6.242298D+00          -1.004800D-02
3.110944D+00          -8.830600D-02
1.509958D+00          -1.298240D-01
7.108450D-01          -7.693700D-02
2.731900D-01           2.126610D-01
1.042330D-01           5.730610D-01
3.829100D-02           3.696510D-01
P   1   1.00
3.829100D-02           1.000000D+00
P   1   1.00
1.407000D-02           1.000000D+00
D   8   1.00
1.133440D+02           3.530000D-03
3.364140D+01           2.578400D-02
1.233100D+01           9.911900D-02
4.994780D+00           2.390730D-01
2.072800D+00           3.571990D-01
8.307530D-01           3.621880D-01
3.091780D-01           2.364610D-01
1.001300D-01           6.011800D-02
D   8   1.00
1.133440D+02          -3.890000D-03
3.364140D+01          -2.844200D-02
1.233100D+01          -1.124290D-01
4.994780D+00          -2.742570D-01
2.072800D+00          -3.155460D-01
8.307530D-01           5.710900D-02
3.091780D-01           5.636040D-01
1.001300D-01           3.846370D-01
D   1   1.00
1.001300D-01           1.000000D+00
D   1   1.00
3.243000D-02           1.000000D+00
F   2   1.00
3.224300D+00           4.222490D-01
7.758000D-01           7.714680D-01
F   1   1.00
2.749000D-01           1.000000D+00
****
$end


--------------------------------------------------------------
 ----------------------------------------------------------------
             Standard Nuclear Orientation (Angstroms)
    I     Atom           X                Y                Z
 ----------------------------------------------------------------
    1      N      -2.7641351000     1.9762580000    -1.7690689000
    2      C      -3.6960681000    -0.9254211000     1.5867516000
    3      H      -3.2985143000    -0.5238465000     2.5357554000
    4      N      -2.6734314000    -1.7127411000     0.9157489000
    5      H      -2.9869540000    -2.6792079000     0.7867132000
    6      C      -4.8607962000    -1.9038375000     1.9482933000
    7      O      -5.8186012000    -1.3976081000     2.5794576000
    8      C      -1.5522861000    -1.2603378000     0.3463813000
    9      O      -1.2264289000    -0.0295475000     0.5113620000
   10      C      -2.4619164000     2.8429919000    -0.8086257000
   11      C      -3.4488577000     3.8796392000    -0.3612407000
   12      H      -4.2711254000     4.0280626000    -1.0702212000
   13      H      -3.8707300000     3.5805777000     0.6117471000
   14      C      -0.7512971000    -2.1953059000    -0.4103570000
   15      H      -0.9557242000    -3.2571547000    -0.2718977000
   16      C       0.1949460000    -1.8210597000    -1.3411829000
   17      C       1.0304695000    -2.8871881000    -2.0134649000
   18      H       1.0270794000    -2.7279032000    -3.1023911000
   19      H       0.6223836000    -3.8912408000    -1.8210398000
   20      C       2.5079687000    -2.9069980000    -1.5961815000
   21      O       3.3416504000    -3.4863510000    -2.3060485000
   22      N       2.8157653000    -2.2908934000    -0.4416855000
   23      H       2.0987658000    -1.8982737000     0.1688454000
   24      C       4.0524077000    -1.6338980000     1.5661856000
   25      O       5.1417303000    -1.4828314000     2.1710534000
   26      C       2.2472224000     2.3749610000    -1.3272352000
   27      N       2.3820307000     1.8367499000    -0.1206209000
   28      C       3.5947036000     1.6346381000     0.6893006000
   29      H       3.8258133000     2.5640176000     1.2352807000
   30      H       3.2731483000     0.8767869000     1.4130981000
   31      C       3.3619226000     3.1343278000    -1.9823742000
   32      H       3.9556625000     2.4640820000    -2.6231767000
   33      H       2.9106234000     3.9050536000    -2.6214489000
   34      C       4.8424929000     1.1390708000    -0.0612500000
   35      H       5.3509656000     1.9951497000    -0.5260349000
   36      H       5.5220914000     0.7734012000     0.7243484000
   37      C       4.6255739000     0.0371422000    -1.1245515000
   38      H       3.5609670000    -0.0138975000    -1.4066932000
   39      H       5.1566591000     0.3438420000    -2.0397053000
   40      C       5.1069105000    -1.3769271000    -0.7672006000
   41      H       5.2518374000    -1.9389730000    -1.7017395000
   42      H       6.0796923000    -1.3341734000    -0.2528390000
   43      C       4.1544794000    -2.2000822000     0.1205641000
   44      H       4.5827946000    -3.2155459000     0.2012062000
   45      C      -5.1296611000     1.1168066000    -1.4796514000
   46      H      -5.5372763000     1.8772775000    -0.7921258000
   47      H      -5.9646196000     0.8349429000    -2.1425719000
   48      C      -4.0753494000     1.7597176000    -2.3931428000
   49      H      -4.4459575000     2.7158040000    -2.7920686000
   50      H      -3.8566574000     1.1078504000    -3.2481819000
   51      C      -4.6542274000    -0.1041992000    -0.6682212000
   52      H      -3.8295597000    -0.6059253000    -1.2009935000
   53      H      -5.4744966000    -0.8392808000    -0.6076926000
   54      C      -4.2109356000     0.2615933000     0.7531217000
   55      H      -3.4333220000     1.0341810000     0.7162628000
   56      H      -5.0669590000     0.6766334000     1.3082872000
   57      O      -4.7324251000    -3.1014683000     1.5648757000
   58      O       2.8916844000    -1.3723950000     1.9962921000
   59      O       0.4661537000    -0.6021804000    -1.7138363000
   60      Fe     -0.2298055000     1.0753710000    -0.8722312000
   61      O      -1.7985751000     1.0757909000    -2.1156328000
   62      O      -1.3098053000     2.7742735000    -0.2637368000
   63      O       1.1203933000     2.2548741000    -1.9237233000
   64      O       1.2655059000     1.2646501000     0.4132998000
   65      H       4.0305273000     3.6101619000    -1.2544695000
   66      H      -2.9113443000     4.8279432000    -0.2178330000
 ----------------------------------------------------------------
 Nuclear Repulsion Energy =        5353.10552578 hartrees
 There are      152 alpha and      147 beta electrons
 Requested basis set is non-standard
 There are 488 shells and 1148 basis functions

 Total QAlloc Memory Limit   8000 MB
 Mega-Array Size       188 MB
 MEM_STATIC part       192 MB

 Using C-PCM dielectric factor f(eps) = (eps-1)/eps = 0.987243
No default van der Waals radius is available for Z = 26
	Found R = 2.4400 A in the $van_der_waals section
 Discretize the solute cavity surface with Lebedev spheres
	Using 110 Lebedev grid points for each H atom
	Using 194 Lebedev grid points for other atoms
	Atomic van der Waals radii (Bondi set) will be scaled by 1.20
 Using smooth SwiG surface discretization
 Remove points where switching function is < 1.0e-08
 Keep 3853 surface tesserae and discard 6515 interior tesserae
 Molecular Surface Area = 488.931 Angst**2

 A cutoff of  1.0D-12 yielded 103622 shell pairs
 There are    546724 function pairs (    623141 Cartesian)
 Smallest overlap matrix eigenvalue = 1.09E-06

 Scale SEOQF with 1.000000e-02/1.000000e-01/1.000000e-01

 Standard Electronic Orientation quadrupole field applied
 Nucleus-field energy     =     0.0000000305 hartrees
 ================ Generating on-the-fly SAD Guess ================
 Attempting to make child job directory: /data/scratch/C_FeABstar_enol_ctL_N_3sexet_SkS_camb3lyp_augccpVDZ_pcmH2O_tddft10020240218083708//Frg1/
 Attempting to make child job directory: /data/scratch/C_FeABstar_enol_ctL_N_3sexet_SkS_camb3lyp_augccpVDZ_pcmH2O_tddft10020240218083708//Frg2/
 Attempting to make child job directory: /data/scratch/C_FeABstar_enol_ctL_N_3sexet_SkS_camb3lyp_augccpVDZ_pcmH2O_tddft10020240218083708//Frg3/
 Attempting to make child job directory: /data/scratch/C_FeABstar_enol_ctL_N_3sexet_SkS_camb3lyp_augccpVDZ_pcmH2O_tddft10020240218083708//Frg4/
 Attempting to make child job directory: /data/scratch/C_FeABstar_enol_ctL_N_3sexet_SkS_camb3lyp_augccpVDZ_pcmH2O_tddft10020240218083708//Frg5/
 Creating input file /data/scratch/C_FeABstar_enol_ctL_N_3sexet_SkS_camb3lyp_augccpVDZ_pcmH2O_tddft10020240218083708/Frg1.input
 using default PutDataFrgm: nothing
 calling putenv with: QCSCRATCH=/data/scratch/C_FeABstar_enol_ctL_N_3sexet_SkS_camb3lyp_augccpVDZ_pcmH2O_tddft10020240218083708/ 
 Spawning Job For Fragment 0
 Done Job For Fragment 0
 calling putenv with: QCSCRATCH=/data/scratch 
 calling putenv with: QCTHREADS=20 
 Creating input file /data/scratch/C_FeABstar_enol_ctL_N_3sexet_SkS_camb3lyp_augccpVDZ_pcmH2O_tddft10020240218083708/Frg2.input
 using default PutDataFrgm: nothing
 calling putenv with: QCSCRATCH=/data/scratch/C_FeABstar_enol_ctL_N_3sexet_SkS_camb3lyp_augccpVDZ_pcmH2O_tddft10020240218083708/ 
 Spawning Job For Fragment 1
 Done Job For Fragment 1
 calling putenv with: QCSCRATCH=/data/scratch 
 calling putenv with: QCTHREADS=20 
 Creating input file /data/scratch/C_FeABstar_enol_ctL_N_3sexet_SkS_camb3lyp_augccpVDZ_pcmH2O_tddft10020240218083708/Frg3.input
 using default PutDataFrgm: nothing
 calling putenv with: QCSCRATCH=/data/scratch/C_FeABstar_enol_ctL_N_3sexet_SkS_camb3lyp_augccpVDZ_pcmH2O_tddft10020240218083708/ 
 Spawning Job For Fragment 2
 Done Job For Fragment 2
 calling putenv with: QCSCRATCH=/data/scratch 
 calling putenv with: QCTHREADS=20 
 Creating input file /data/scratch/C_FeABstar_enol_ctL_N_3sexet_SkS_camb3lyp_augccpVDZ_pcmH2O_tddft10020240218083708/Frg4.input
 using default PutDataFrgm: nothing
 calling putenv with: QCSCRATCH=/data/scratch/C_FeABstar_enol_ctL_N_3sexet_SkS_camb3lyp_augccpVDZ_pcmH2O_tddft10020240218083708/ 
 Spawning Job For Fragment 3
 Done Job For Fragment 3
 calling putenv with: QCSCRATCH=/data/scratch 
 calling putenv with: QCTHREADS=20 
 Creating input file /data/scratch/C_FeABstar_enol_ctL_N_3sexet_SkS_camb3lyp_augccpVDZ_pcmH2O_tddft10020240218083708/Frg5.input
 using default PutDataFrgm: nothing
 calling putenv with: QCSCRATCH=/data/scratch/C_FeABstar_enol_ctL_N_3sexet_SkS_camb3lyp_augccpVDZ_pcmH2O_tddft10020240218083708/ 
 Spawning Job For Fragment 4
 Done Job For Fragment 4
 calling putenv with: QCSCRATCH=/data/scratch 
 calling putenv with: QCTHREADS=20 
 Time for running child jobs:  CPU 0.03 s  wall 123.26 s
 ============= Method Specific SAD Guess Constructed =============
 Guess from on-the-fly superposition of atomic densities
 Warning: Energy on first SCF cycle will be non-variational

 -----------------------------------------------------------------------
  General SCF calculation program by
  Eric Jon Sundstrom, Paul Horn, Yuezhi Mao, Dmitri Zuev, Alec White,
  David Stuck, Shaama M.S., Shane Yost, Joonho Lee, David Small,
  Daniel Levine, Susi Lehtola, Hugh Burton, Evgeny Epifanovsky,
  Bang C. Huynh
 -----------------------------------------------------------------------
 Exchange:     0.1900 Hartree-Fock + 0.3500 B88 + 0.4600 muB88 + LR-HF
 Correlation:  0.1900 VWN5 + 0.8100 LYP
 Using SG-1 standard quadrature grid
 using 20 threads for integral computing
 -------------------------------------------------------
 OpenMP Integral computing Module                
 Release: version 1.0, May 2013, Q-Chem Inc. Pittsburgh 
 -------------------------------------------------------
 C-PCM solvent model [f = (eps-1)/eps], solve by matrix inversion
 A unrestricted SCF calculation will be
 performed using DIIS
 SCF converges when DIIS error is below 1.0e-08
 ---------------------------------------
  Cycle       Energy         DIIS error
 ---------------------------------------
    1   -3147.6040364637      1.05e-02  
    2   -3126.8149976560      1.34e-03  
    3   -3126.3453036465      1.84e-03  
    4   -3127.8423187988      3.89e-04  
    5   -3127.8919519102      2.13e-04  
    6   -3127.9106743515      1.01e-04  
    7   -3127.9163640987      2.71e-05  
    8   -3127.9172534095      1.73e-05  
    9   -3127.9176156493      7.19e-06  
   10   -3127.9177428442      3.68e-06  
   11   -3127.9177898309      2.18e-06  
   12   -3127.9178118769      1.22e-06  
   13   -3127.9178174387      6.40e-07  
   14   -3127.9178187567      3.32e-07  
   15   -3127.9178189712      1.49e-07  
   16   -3127.9178190272      7.03e-08  
   17   -3127.9178190394      4.55e-08  
   18   -3127.9178190422      2.49e-08  
   19   -3127.9178190442      1.23e-08  
   20   -3127.9178190445      7.01e-09  Convergence criterion met
 ---------------------------------------
 SCF time:   CPU 294346.26s  wall 16776.00s 
<S^2> =          8.757835695

************** Final PCM Free Energy Summary **************
 G_electrostatic  =      -0.29167845 hartree =    -183.03098857 kcal/mol
 G_cavitation     =       0.00000000 hartree =       0.00000000 kcal/mol
 G_dispersion     =       0.00000000 hartree =       0.00000000 kcal/mol
 G_repulsion      =       0.00000000 hartree =       0.00000000 kcal/mol
 --------------------------------------------------
 Non-electrostatic Free Energy =       0.00000000 hartree =       0.00000000 kcal/mol
 Total                         =      -0.29167845 hartree =    -183.03098857 kcal/mol
 --------------------------------------------------
 SCF Energy (H0 + V/2)                       =   -3127.91781904 
 Solute Internal Energy (H0)                 =   -3127.62614060 
 Total Free Energy (H0 + V/2 + non-elec)     =   -3127.91781904 hartree
                                             = -1962798.05596008 kcal/mol
***********************************************************

 SCF   energy in the final basis set =    -3127.9178190445
 Total energy in the final basis set =    -3127.9178190445
 

 CIS/TDDFT memory preview:
 --------------------------
	NOV = NOa*NVa + NOb*NVb = 298539
	NRoots = 100, max iter = 30, max vectors = 3000
	Size of each subspace vector: 2.28 Mb
	Davidson algorithm may add up to 2 x NOV x NRoots (= 455.5 Mb) per iteration
	Max memory = 13666.0 Mb (worst case scenario)
	Currently available memory = 8000.0 Mb

	In case of problems:
	(a) increase memory (MEM_TOTAL = 13667 can hold 3000 subspace vectors), or
	(b) request fewer states (CIS_N_ROOTS = 58 will fit in current MEM_TOTAL), or
	(c) reduce MAX_CIS_SUBSPACE (= 1756 will fit in current MEM_TOTAL).
	Reducing MAX_CIS_SUBSPACE may hamper convergence.

 Direct TDDFT/TDA calculation will be performed
 Exchange:     0.1900 Hartree-Fock + 0.3500 B88 + 0.4600 muB88 + LR-HF
 Correlation:  0.1900 VWN5 + 0.8100 LYP
 Using SG-1 standard quadrature grid
 Adding PCM contribution to the XC response (LR-PCM)
 CIS energy converged when residual is below 10e- 6
 ---------------------------------------------------
 Iter    Rts Conv    Rts Left    Ttl Dev     Max Dev
 ---------------------------------------------------
   1         0         100      0.006476    0.000243
   2         0         100      0.004790    0.000160
   3         0         100      0.004587    0.000120
   4         0         100      0.003411    0.000116
   5        12          88      0.002374    0.000078
   6        22          78      0.001241    0.000058
   7        33          67      0.000712    0.000067
   8        51          49      0.000387    0.000052
   9        67          33      0.000144    0.000017
  10        91           9      0.000050    0.000005
  11        96           4      0.000025    0.000001
  12       100           0      0.000019    0.000001    Roots Converged
 ---------------------------------------------------
 
 ---------------------------------------------------
         TDDFT/TDA Excitation Energies              
 ---------------------------------------------------

 Excited state   1: excitation energy (eV) =    2.3182
 Total energy for state  1:                 -3127.83262801 au
    <S**2>     :  8.8120
    Trans. Mom.: -0.1954 X  -0.0773 Y   0.0144 Z
    Strength   :     0.0025194540
    D(  145) --> S(    1) amplitude = -0.4566 beta
    D(  145) --> S(    2) amplitude =  0.2824 beta
    D(  146) --> S(    1) amplitude = -0.2278 beta
    D(  147) --> S(    1) amplitude =  0.6673 beta
    D(  147) --> S(    2) amplitude = -0.3941 beta

 Excited state   2: excitation energy (eV) =    2.4137
 Total energy for state  2:                 -3127.82911614 au
    <S**2>     :  8.8110
    Trans. Mom.:  0.2867 X  -0.0949 Y   0.0844 Z
    Strength   :     0.0058154052
    D(  145) --> S(    1) amplitude = -0.2109 beta
    D(  145) --> S(    2) amplitude =  0.3392 beta
    D(  146) --> S(    1) amplitude =  0.7445 beta
    D(  146) --> S(    2) amplitude = -0.4285 beta
    D(  147) --> S(    2) amplitude = -0.2229 beta

 Excited state   3: excitation energy (eV) =    2.4464
 Total energy for state  3:                 -3127.82791466 au
    <S**2>     :  8.8052
    Trans. Mom.: -0.6104 X  -0.0406 Y  -0.1648 Z
    Strength   :     0.0240595011
    D(  145) --> S(    1) amplitude = -0.2718 beta
    D(  145) --> S(    2) amplitude = -0.2954 beta
    D(  146) --> S(    2) amplitude = -0.4761 beta
    D(  147) --> S(    1) amplitude =  0.3790 beta
    D(  147) --> S(    2) amplitude =  0.6185 beta

 Excited state   4: excitation energy (eV) =    2.5437
 Total energy for state  4:                 -3127.82434067 au
    <S**2>     :  8.7914
    Trans. Mom.:  0.2783 X   0.0537 Y   0.0696 Z
    Strength   :     0.0053062696
    D(  145) --> S(    2) amplitude = -0.2541 beta
    D(  145) --> S(    3) amplitude =  0.3781 beta
    D(  146) --> S(    1) amplitude =  0.3648 beta
    D(  146) --> S(    2) amplitude =  0.5661 beta
    D(  146) --> S(    3) amplitude =  0.1572 beta
    D(  147) --> S(    3) amplitude = -0.5037 beta

 Excited state   5: excitation energy (eV) =    2.6560
 Total energy for state  5:                 -3127.82021328 au
    <S**2>     :  8.7836
    Trans. Mom.: -0.7604 X  -0.1298 Y  -0.1163 Z
    Strength   :     0.0396035485
    D(  145) --> S(    3) amplitude = -0.4842 beta
    D(  146) --> S(    1) amplitude =  0.2183 beta
    D(  146) --> S(    2) amplitude =  0.2208 beta
    D(  146) --> S(    3) amplitude =  0.6719 beta
    D(  147) --> S(    3) amplitude =  0.3552 beta

 Excited state   6: excitation energy (eV) =    2.7594
 Total energy for state  6:                 -3127.81641266 au
    <S**2>     :  8.8172
    Trans. Mom.: -0.1079 X   0.6114 Y  -0.1990 Z
    Strength   :     0.0287314183
    D(  145) --> S(    2) amplitude =  0.1863 beta
    D(  146) --> S(    1) amplitude = -0.3397 beta
    D(  146) --> S(    2) amplitude = -0.2716 beta
    D(  146) --> S(    3) amplitude =  0.5776 beta
    D(  147) --> S(    1) amplitude = -0.2472 beta
    D(  147) --> S(    2) amplitude = -0.1669 beta
    D(  147) --> S(    3) amplitude = -0.5209 beta

 Excited state   7: excitation energy (eV) =    3.0734
 Total energy for state  7:                 -3127.80487268 au
    <S**2>     :  9.2927
    Trans. Mom.: -0.0797 X  -0.0458 Y   0.1433 Z
    Strength   :     0.0021808371
    S(    5) --> V(    2) amplitude =  0.1912 alpha
    D(  145) --> S(    1) amplitude =  0.6764 beta
    D(  145) --> S(    2) amplitude =  0.1818 beta
    D(  147) --> S(    1) amplitude =  0.4662 beta

 Excited state   8: excitation energy (eV) =    3.1446
 Total energy for state  8:                 -3127.80225643 au
    <S**2>     :  8.8101
    Trans. Mom.:  0.0606 X   0.0935 Y   0.0509 Z
    Strength   :     0.0011555417
    D(  136) --> S(    2) amplitude =  0.1560 beta
    D(  145) --> S(    2) amplitude =  0.6803 beta
    D(  146) --> S(    2) amplitude =  0.2531 beta
    D(  147) --> S(    2) amplitude =  0.5655 beta

 Excited state   9: excitation energy (eV) =    3.4013
 Total energy for state  9:                 -3127.79282259 au
    <S**2>     :  8.8801
    Trans. Mom.:  0.0405 X  -0.1042 Y  -0.0018 Z
    Strength   :     0.0010418168
    D(  145) --> S(    3) amplitude =  0.6903 beta
    D(  146) --> S(    3) amplitude =  0.2978 beta
    D(  147) --> S(    3) amplitude =  0.4950 beta

 Excited state  10: excitation energy (eV) =    3.6251
 Total energy for state 10:                 -3127.78459985 au
    <S**2>     :  9.3212
    Trans. Mom.: -0.1311 X  -0.2090 Y   0.0644 Z
    Strength   :     0.0057724076
    S(    5) --> V(    2) amplitude = -0.2833 alpha
    S(    5) --> V(    5) amplitude = -0.1992 alpha
    D(  145) --> S(    1) amplitude =  0.1622 beta
    D(  145) --> S(    4) amplitude = -0.3358 beta
    D(  145) --> V(    5) amplitude =  0.1534 beta
    D(  145) --> V(    7) amplitude =  0.2060 beta
    D(  147) --> S(    4) amplitude =  0.6424 beta
    D(  147) --> S(    5) amplitude =  0.1995 beta

 Excited state  11: excitation energy (eV) =    3.6687
 Total energy for state 11:                 -3127.78299586 au
    <S**2>     :  9.4418
    Trans. Mom.: -0.0757 X  -0.0049 Y   0.0913 Z
    Strength   :     0.0012672830
    S(    5) --> V(    2) amplitude = -0.3215 alpha
    S(    5) --> V(    5) amplitude = -0.2261 alpha
    D(  145) --> S(    1) amplitude =  0.1740 beta
    D(  145) --> S(    4) amplitude =  0.4405 beta
    D(  146) --> S(    4) amplitude =  0.1868 beta
    D(  147) --> S(    4) amplitude = -0.4390 beta
    D(  147) --> S(    5) amplitude =  0.2101 beta
    D(  147) --> V(    1) amplitude = -0.1521 beta
    D(  147) --> V(    5) amplitude =  0.1682 beta
    D(  147) --> V(    7) amplitude =  0.2627 beta

 Excited state  12: excitation energy (eV) =    3.7476
 Total energy for state 12:                 -3127.78009720 au
    <S**2>     :  8.8172
    Trans. Mom.:  0.0630 X   0.0602 Y  -0.0361 Z
    Strength   :     0.0008169167
    D(  145) --> S(    4) amplitude = -0.2977 beta
    D(  146) --> S(    4) amplitude =  0.8414 beta
    D(  146) --> S(    5) amplitude = -0.2767 beta

 Excited state  13: excitation energy (eV) =    3.8743
 Total energy for state 13:                 -3127.77544101 au
    <S**2>     :  8.8327
    Trans. Mom.: -0.2866 X   0.0680 Y  -0.0673 Z
    Strength   :     0.0086658165
    D(  145) --> S(    5) amplitude = -0.3175 beta
    D(  145) --> V(    1) amplitude =  0.1548 beta
    D(  146) --> S(    4) amplitude = -0.2863 beta
    D(  146) --> S(    5) amplitude = -0.4157 beta
    D(  146) --> V(    1) amplitude =  0.1974 beta
    D(  147) --> S(    5) amplitude =  0.5225 beta
    D(  147) --> V(    1) amplitude = -0.2476 beta
    D(  147) --> V(    5) amplitude = -0.1671 beta

 Excited state  14: excitation energy (eV) =    3.9322
 Total energy for state 14:                 -3127.77331418 au
    <S**2>     :  8.8457
    Trans. Mom.: -0.0211 X  -0.0140 Y  -0.0376 Z
    Strength   :     0.0001983391
    D(  145) --> S(    5) amplitude = -0.4393 beta
    D(  145) --> V(    1) amplitude =  0.2116 beta
    D(  146) --> S(    5) amplitude =  0.5690 beta
    D(  146) --> V(    1) amplitude = -0.2671 beta
    D(  146) --> V(    5) amplitude = -0.1841 beta
    D(  147) --> S(    5) amplitude =  0.2258 beta

 Excited state  15: excitation energy (eV) =    3.9448
 Total energy for state 15:                 -3127.77284877 au
    <S**2>     :  8.8062
    Trans. Mom.: -0.0040 X   0.0837 Y   0.0384 Z
    Strength   :     0.0008201820
    D(  134) --> S(    1) amplitude = -0.1810 beta
    D(  134) --> S(    2) amplitude =  0.2063 beta
    D(  135) --> S(    1) amplitude = -0.4565 beta
    D(  135) --> S(    2) amplitude =  0.4813 beta
    D(  137) --> S(    1) amplitude =  0.2172 beta
    D(  137) --> S(    2) amplitude = -0.2275 beta
    D(  138) --> S(    1) amplitude =  0.2725 beta
    D(  138) --> S(    2) amplitude = -0.2875 beta

 Excited state  16: excitation energy (eV) =    4.0403
 Total energy for state 16:                 -3127.76934156 au
    <S**2>     :  8.8268
    Trans. Mom.:  0.1477 X   0.0885 Y  -0.0153 Z
    Strength   :     0.0029574557
    D(  135) --> S(    1) amplitude =  0.5325 beta
    D(  135) --> S(    2) amplitude =  0.4673 beta
    D(  136) --> S(    1) amplitude =  0.1617 beta
    D(  137) --> S(    1) amplitude = -0.2246 beta
    D(  137) --> S(    2) amplitude = -0.2097 beta
    D(  138) --> S(    1) amplitude = -0.3069 beta
    D(  138) --> S(    2) amplitude = -0.2754 beta

 Excited state  17: excitation energy (eV) =    4.1506
 Total energy for state 17:                 -3127.76528900 au
    <S**2>     : 10.4731
    Trans. Mom.:  0.0289 X   0.0149 Y  -0.0279 Z
    Strength   :     0.0001866327
    S(    3) --> V(   15) amplitude = -0.1623 alpha
    S(    3) --> V(   16) amplitude =  0.3275 alpha
    S(    3) --> V(   17) amplitude = -0.2569 alpha
    S(    3) --> V(   20) amplitude =  0.2038 alpha
    D(  145) --> V(   16) amplitude = -0.2044 beta
    D(  145) --> V(   17) amplitude =  0.2106 beta
    D(  145) --> V(   20) amplitude = -0.2285 beta
    D(  147) --> V(   16) amplitude =  0.1828 beta
    D(  147) --> V(   17) amplitude = -0.1901 beta
    D(  147) --> V(   20) amplitude =  0.2031 beta

 Excited state  18: excitation energy (eV) =    4.1715
 Total energy for state 18:                 -3127.76451906 au
    <S**2>     :  8.8464
    Trans. Mom.: -0.2107 X  -0.0215 Y   0.0749 Z
    Strength   :     0.0051578547
    D(  134) --> S(    1) amplitude =  0.8369 beta
    D(  136) --> S(    1) amplitude = -0.2244 beta

 Excited state  19: excitation energy (eV) =    4.1964
 Total energy for state 19:                 -3127.76360379 au
    <S**2>     : 10.4579
    Trans. Mom.: -0.0392 X   0.0106 Y   0.0257 Z
    Strength   :     0.0002371833
    S(    4) --> V(   16) amplitude = -0.2996 alpha
    S(    4) --> V(   17) amplitude = -0.2908 alpha
    S(    4) --> V(   18) amplitude =  0.1994 alpha
    S(    4) --> V(   19) amplitude = -0.2111 alpha
    S(    4) --> V(   21) amplitude = -0.1582 alpha
    D(  146) --> V(   16) amplitude =  0.2534 beta
    D(  146) --> V(   17) amplitude =  0.1728 beta
    D(  146) --> V(   18) amplitude = -0.2268 beta
    D(  146) --> V(   19) amplitude = -0.1543 beta
    D(  146) --> V(   21) amplitude =  0.2029 beta
    D(  146) --> V(   22) amplitude =  0.2012 beta
    D(  146) --> V(   26) amplitude =  0.1864 beta

 Excited state  20: excitation energy (eV) =    4.2177
 Total energy for state 20:                 -3127.76282228 au
    <S**2>     :  8.8066
    Trans. Mom.:  0.1894 X   0.1792 Y  -0.0600 Z
    Strength   :     0.0073948193
    D(  134) --> S(    1) amplitude = -0.1558 beta
    D(  135) --> S(    3) amplitude =  0.6795 beta
    D(  136) --> S(    3) amplitude =  0.2334 beta
    D(  137) --> S(    3) amplitude = -0.2705 beta
    D(  138) --> S(    3) amplitude = -0.3740 beta

 Excited state  21: excitation energy (eV) =    4.2837
 Total energy for state 21:                 -3127.76039582 au
    <S**2>     :  8.8011
    Trans. Mom.: -0.0437 X   0.0393 Y  -0.0532 Z
    Strength   :     0.0006595315
    D(  134) --> S(    2) amplitude =  0.8229 beta
    D(  135) --> S(    2) amplitude = -0.2497 beta
    D(  136) --> S(    2) amplitude = -0.2569 beta

 Excited state  22: excitation energy (eV) =    4.3398
 Total energy for state 22:                 -3127.75833342 au
    <S**2>     :  8.8162
    Trans. Mom.:  0.1723 X  -0.1387 Y  -0.1274 Z
    Strength   :     0.0069281229
    D(  134) --> S(    3) amplitude =  0.3332 beta
    D(  145) --> S(    4) amplitude =  0.5989 beta
    D(  145) --> S(    5) amplitude = -0.1969 beta
    D(  146) --> S(    4) amplitude =  0.2350 beta
    D(  147) --> S(    4) amplitude =  0.4647 beta

 Excited state  23: excitation energy (eV) =    4.3892
 Total energy for state 23:                 -3127.75651719 au
    <S**2>     :  8.7853
    Trans. Mom.:  0.0722 X  -0.0928 Y  -0.0345 Z
    Strength   :     0.0016150829
    D(  134) --> S(    3) amplitude = -0.7390 beta
    D(  145) --> S(    4) amplitude =  0.2564 beta
    D(  147) --> S(    4) amplitude =  0.2011 beta

 Excited state  24: excitation energy (eV) =    4.5517
 Total energy for state 24:                 -3127.75054561 au
    <S**2>     :  8.8671
    Trans. Mom.:  0.0804 X   0.0693 Y  -0.0625 Z
    Strength   :     0.0016908681
    D(  123) --> S(    1) amplitude =  0.1560 beta
    D(  124) --> S(    1) amplitude =  0.2264 beta
    D(  129) --> S(    1) amplitude = -0.2873 beta
    D(  130) --> S(    1) amplitude =  0.1746 beta
    D(  132) --> S(    1) amplitude =  0.3561 beta
    D(  133) --> S(    1) amplitude =  0.5092 beta
    D(  134) --> S(    3) amplitude = -0.1987 beta
    D(  136) --> S(    1) amplitude =  0.3417 beta
    D(  139) --> S(    1) amplitude =  0.2237 beta

 Excited state  25: excitation energy (eV) =    4.6190
 Total energy for state 25:                 -3127.74807503 au
    <S**2>     :  9.0188
    Trans. Mom.:  0.1068 X   0.1818 Y  -0.0706 Z
    Strength   :     0.0055942362
    D(  124) --> S(    1) amplitude = -0.1502 beta
    D(  129) --> S(    1) amplitude =  0.2310 beta
    D(  130) --> S(    1) amplitude = -0.2310 beta
    D(  131) --> S(    1) amplitude = -0.2140 beta
    D(  132) --> S(    1) amplitude = -0.3508 beta
    D(  134) --> S(    1) amplitude =  0.2027 beta
    D(  135) --> S(    1) amplitude = -0.1555 beta
    D(  136) --> S(    1) amplitude =  0.5322 beta
    D(  139) --> S(    1) amplitude =  0.3680 beta

 Excited state  26: excitation energy (eV) =    4.6727
 Total energy for state 26:                 -3127.74610111 au
    <S**2>     :  8.8993
    Trans. Mom.:  0.2067 X   0.2351 Y  -0.1091 Z
    Strength   :     0.0125807855
    D(  133) --> S(    2) amplitude =  0.4186 beta
    D(  134) --> S(    2) amplitude =  0.1861 beta
    D(  136) --> S(    2) amplitude =  0.5966 beta
    D(  139) --> S(    2) amplitude =  0.4056 beta

 Excited state  27: excitation energy (eV) =    4.7193
 Total energy for state 27:                 -3127.74438654 au
    <S**2>     :  8.7908
    Trans. Mom.: -0.1297 X  -0.0732 Y   0.1699 Z
    Strength   :     0.0059028462
    D(  124) --> S(    2) amplitude =  0.1948 beta
    D(  129) --> S(    2) amplitude = -0.2819 beta
    D(  129) --> S(    3) amplitude =  0.2009 beta
    D(  130) --> S(    2) amplitude =  0.2843 beta
    D(  130) --> S(    3) amplitude = -0.1550 beta
    D(  131) --> S(    2) amplitude =  0.2249 beta
    D(  132) --> S(    2) amplitude =  0.3747 beta
    D(  132) --> S(    3) amplitude = -0.2426 beta
    D(  133) --> S(    2) amplitude =  0.3712 beta
    D(  133) --> S(    3) amplitude = -0.2405 beta
    D(  134) --> S(    3) amplitude = -0.2293 beta
    D(  136) --> S(    2) amplitude = -0.1655 beta

 Excited state  28: excitation energy (eV) =    4.7406
 Total energy for state 28:                 -3127.74360352 au
    <S**2>     :  8.7884
    Trans. Mom.:  0.3439 X  -0.0710 Y  -0.3676 Z
    Strength   :     0.0300144039
    S(    5) --> V(    2) amplitude =  0.1626 alpha
    D(  129) --> S(    2) amplitude = -0.1705 beta
    D(  130) --> S(    2) amplitude =  0.1607 beta
    D(  131) --> S(    2) amplitude =  0.1974 beta
    D(  132) --> S(    2) amplitude =  0.2274 beta
    D(  132) --> S(    3) amplitude =  0.1757 beta
    D(  133) --> S(    2) amplitude =  0.1745 beta
    D(  133) --> S(    3) amplitude =  0.2523 beta
    D(  134) --> S(    2) amplitude = -0.1547 beta
    D(  136) --> S(    2) amplitude = -0.1541 beta
    D(  136) --> S(    3) amplitude =  0.1988 beta
    D(  145) --> S(    5) amplitude =  0.3457 beta
    D(  145) --> V(    1) amplitude = -0.1718 beta
    D(  147) --> S(    5) amplitude =  0.3438 beta
    D(  147) --> V(    1) amplitude = -0.1649 beta

 Excited state  29: excitation energy (eV) =    4.7686
 Total energy for state 29:                 -3127.74257534 au
    <S**2>     :  8.7916
    Trans. Mom.:  0.4556 X   0.0647 Y  -0.2890 Z
    Strength   :     0.0345009906
    S(    5) --> V(    2) amplitude =  0.1536 alpha
    D(  124) --> S(    3) amplitude = -0.2242 beta
    D(  129) --> S(    3) amplitude =  0.2835 beta
    D(  130) --> S(    3) amplitude = -0.1997 beta
    D(  131) --> S(    1) amplitude = -0.1977 beta
    D(  131) --> S(    3) amplitude = -0.1671 beta
    D(  132) --> S(    3) amplitude = -0.3887 beta
    D(  133) --> S(    3) amplitude = -0.2393 beta
    D(  145) --> S(    5) amplitude =  0.3344 beta
    D(  145) --> V(    1) amplitude = -0.1650 beta
    D(  147) --> S(    5) amplitude =  0.2686 beta

 Excited state  30: excitation energy (eV) =    4.8443
 Total energy for state 30:                 -3127.73979352 au
    <S**2>     :  8.8544
    Trans. Mom.: -0.0180 X  -0.0209 Y  -0.0118 Z
    Strength   :     0.0001071096
    D(  131) --> S(    3) amplitude = -0.1972 beta
    D(  133) --> S(    3) amplitude =  0.2429 beta
    D(  134) --> S(    3) amplitude =  0.2117 beta
    D(  135) --> S(    3) amplitude = -0.1698 beta
    D(  136) --> S(    3) amplitude =  0.5606 beta
    D(  139) --> S(    3) amplitude =  0.3929 beta
    D(  145) --> S(    5) amplitude = -0.1515 beta

 Excited state  31: excitation energy (eV) =    4.9138
 Total energy for state 31:                 -3127.73724044 au
    <S**2>     :  8.7902
    Trans. Mom.: -0.0717 X  -0.0072 Y   0.0331 Z
    Strength   :     0.0007572223
    D(  130) --> S(    2) amplitude = -0.2497 beta
    D(  131) --> S(    2) amplitude =  0.7769 beta
    D(  132) --> S(    2) amplitude = -0.2913 beta
    D(  134) --> S(    2) amplitude =  0.1854 beta
    D(  136) --> S(    2) amplitude =  0.1608 beta

 Excited state  32: excitation energy (eV) =    4.9359
 Total energy for state 32:                 -3127.73642979 au
    <S**2>     :  8.8837
    Trans. Mom.: -0.0670 X  -0.0724 Y  -0.0060 Z
    Strength   :     0.0011808264
    D(  124) --> S(    1) amplitude = -0.1851 beta
    D(  129) --> S(    1) amplitude =  0.2274 beta
    D(  131) --> S(    1) amplitude = -0.3965 beta
    D(  132) --> S(    1) amplitude = -0.1664 beta
    D(  133) --> S(    1) amplitude =  0.6322 beta
    D(  136) --> S(    1) amplitude = -0.1988 beta

 Excited state  33: excitation energy (eV) =    4.9686
 Total energy for state 33:                 -3127.73522598 au
    <S**2>     :  8.8290
    Trans. Mom.:  0.0498 X   0.0095 Y   0.1546 Z
    Strength   :     0.0032231914
    D(  127) --> S(    1) amplitude = -0.1967 beta
    D(  131) --> S(    1) amplitude =  0.5837 beta
    D(  131) --> S(    3) amplitude = -0.2316 beta
    D(  132) --> S(    1) amplitude = -0.3666 beta
    D(  133) --> S(    1) amplitude =  0.2834 beta
    D(  133) --> S(    2) amplitude =  0.1646 beta
    D(  133) --> S(    3) amplitude = -0.2570 beta

 Excited state  34: excitation energy (eV) =    4.9783
 Total energy for state 34:                 -3127.73487103 au
    <S**2>     :  8.8536
    Trans. Mom.: -0.1267 X   0.1333 Y  -0.0371 Z
    Strength   :     0.0042941198
    D(  124) --> S(    2) amplitude = -0.2231 beta
    D(  127) --> S(    2) amplitude = -0.2107 beta
    D(  129) --> S(    2) amplitude =  0.2382 beta
    D(  131) --> S(    1) amplitude = -0.3528 beta
    D(  132) --> S(    2) amplitude = -0.3247 beta
    D(  133) --> S(    2) amplitude =  0.5613 beta
    D(  136) --> S(    2) amplitude = -0.1901 beta

 Excited state  35: excitation energy (eV) =    5.1039
 Total energy for state 35:                 -3127.73025248 au
    <S**2>     :  9.0380
    Trans. Mom.: -1.0489 X  -0.2480 Y   0.6135 Z
    Strength   :     0.1923443368
    S(    5) --> V(    2) amplitude = -0.2602 alpha
    S(    5) --> V(    5) amplitude = -0.1609 alpha
    D(  130) --> S(    1) amplitude =  0.1753 beta
    D(  131) --> S(    3) amplitude =  0.2403 beta
    D(  133) --> S(    3) amplitude = -0.3230 beta
    D(  136) --> S(    3) amplitude =  0.2738 beta
    D(  139) --> S(    3) amplitude =  0.1819 beta
    D(  147) --> V(    5) amplitude = -0.2566 beta
    D(  147) --> V(    7) amplitude = -0.2697 beta

 Excited state  36: excitation energy (eV) =    5.1391
 Total energy for state 36:                 -3127.72895949 au
    <S**2>     :  9.2669
    Trans. Mom.: -0.1822 X  -0.0899 Y   0.1559 Z
    Strength   :     0.0082564774
    D(  143) --> V(    2) amplitude = -0.1907 alpha
    D(  144) --> V(    2) amplitude =  0.2292 alpha
    D(  144) --> V(    5) amplitude =  0.1579 alpha
    S(    1) --> V(    2) amplitude =  0.1585 alpha
    D(  130) --> S(    1) amplitude = -0.2261 beta
    D(  130) --> S(    2) amplitude = -0.1706 beta
    D(  131) --> S(    3) amplitude =  0.4508 beta
    D(  132) --> S(    3) amplitude = -0.2624 beta
    D(  133) --> S(    3) amplitude =  0.1999 beta

 Excited state  37: excitation energy (eV) =    5.1542
 Total energy for state 37:                 -3127.72840388 au
    <S**2>     :  9.4164
    Trans. Mom.: -0.1760 X  -0.1849 Y   0.1931 Z
    Strength   :     0.0129354951
    D(  139) --> V(    2) amplitude =  0.1833 alpha
    D(  144) --> V(    2) amplitude =  0.1806 alpha
    D(  130) --> S(    1) amplitude =  0.2677 beta
    D(  131) --> S(    3) amplitude = -0.3416 beta
    D(  133) --> S(    3) amplitude =  0.3386 beta
    D(  135) --> S(    4) amplitude =  0.1624 beta
    D(  136) --> S(    3) amplitude = -0.2287 beta

 Excited state  38: excitation energy (eV) =    5.1995
 Total energy for state 38:                 -3127.72674090 au
    <S**2>     :  9.0998
    Trans. Mom.:  0.1224 X  -0.2614 Y  -0.0121 Z
    Strength   :     0.0106345516
    D(  143) --> V(    2) amplitude =  0.1860 alpha
    D(  144) --> V(    2) amplitude = -0.2177 alpha
    D(  127) --> S(    3) amplitude = -0.1576 beta
    D(  131) --> S(    3) amplitude =  0.3651 beta
    D(  132) --> S(    3) amplitude = -0.2413 beta
    D(  133) --> S(    3) amplitude =  0.2354 beta
    D(  135) --> S(    4) amplitude =  0.1829 beta

 Excited state  39: excitation energy (eV) =    5.2195
 Total energy for state 39:                 -3127.72600575 au
    <S**2>     :  9.1928
    Trans. Mom.: -0.9281 X  -0.0105 Y   0.6101 Z
    Strength   :     0.1577605604
    S(    5) --> V(    2) amplitude = -0.2214 alpha
    D(  129) --> S(    3) amplitude =  0.1544 beta
    D(  131) --> S(    3) amplitude = -0.2439 beta
    D(  133) --> S(    3) amplitude =  0.3904 beta
    D(  147) --> V(    5) amplitude = -0.1956 beta
    D(  147) --> V(    7) amplitude = -0.2070 beta

 Excited state  40: excitation energy (eV) =    5.2476
 Total energy for state 40:                 -3127.72497224 au
    <S**2>     : 10.5827
    Trans. Mom.: -0.1547 X  -0.0096 Y   0.1083 Z
    Strength   :     0.0045970191
    D(  146) --> V(   18) amplitude =  0.1699 alpha
    D(  146) --> V(   23) amplitude =  0.1686 alpha
    D(  146) --> V(   26) amplitude =  0.1865 alpha
    D(  141) --> V(   18) amplitude =  0.1710 beta
    D(  141) --> V(   23) amplitude = -0.1861 beta
    D(  141) --> V(   24) amplitude =  0.1521 beta
    D(  141) --> V(   26) amplitude =  0.1863 beta

 Excited state  41: excitation energy (eV) =    5.2982
 Total energy for state 41:                 -3127.72311205 au
    <S**2>     :  8.9549
    Trans. Mom.:  0.1077 X  -0.0180 Y  -0.0745 Z
    Strength   :     0.0022666599
    D(  129) --> S(    1) amplitude =  0.1588 beta
    D(  129) --> S(    2) amplitude = -0.1894 beta
    D(  130) --> S(    1) amplitude =  0.4201 beta
    D(  130) --> S(    2) amplitude = -0.3783 beta
    D(  142) --> S(    1) amplitude =  0.3912 beta
    D(  144) --> S(    1) amplitude =  0.3030 beta

 Excited state  42: excitation energy (eV) =    5.3239
 Total energy for state 42:                 -3127.72216937 au
    <S**2>     :  8.8756
    Trans. Mom.: -0.0027 X  -0.0313 Y   0.0452 Z
    Strength   :     0.0003952193
    D(  129) --> S(    2) amplitude =  0.1617 beta
    D(  130) --> S(    2) amplitude =  0.3496 beta
    D(  142) --> S(    1) amplitude =  0.6314 beta
    D(  142) --> S(    2) amplitude =  0.2191 beta
    D(  144) --> S(    1) amplitude =  0.3908 beta
    D(  144) --> S(    2) amplitude =  0.1569 beta

 Excited state  43: excitation energy (eV) =    5.3736
 Total energy for state 43:                 -3127.72034240 au
    <S**2>     :  8.9334
    Trans. Mom.: -0.0490 X   0.4892 Y   0.0724 Z
    Strength   :     0.0325169278
    D(  130) --> S(    1) amplitude = -0.2534 beta
    D(  130) --> S(    2) amplitude = -0.3592 beta
    D(  130) --> S(    3) amplitude =  0.2360 beta
    D(  135) --> S(    4) amplitude = -0.3080 beta
    D(  136) --> S(    4) amplitude = -0.1646 beta
    D(  138) --> S(    4) amplitude =  0.1914 beta
    D(  142) --> S(    1) amplitude =  0.2635 beta
    D(  142) --> S(    2) amplitude = -0.2321 beta
    D(  144) --> S(    2) amplitude = -0.2080 beta

 Excited state  44: excitation energy (eV) =    5.3944
 Total energy for state 44:                 -3127.71957874 au
    <S**2>     :  8.9148
    Trans. Mom.:  0.0378 X   0.0071 Y  -0.0109 Z
    Strength   :     0.0002110913
    D(  141) --> S(    1) amplitude =  0.7641 beta
    D(  142) --> S(    1) amplitude = -0.3818 beta
    D(  144) --> S(    1) amplitude =  0.3362 beta

 Excited state  45: excitation energy (eV) =    5.4007
 Total energy for state 45:                 -3127.71934704 au
    <S**2>     :  8.8018
    Trans. Mom.:  0.2238 X   0.3871 Y  -0.0570 Z
    Strength   :     0.0268783340
    D(  129) --> S(    1) amplitude =  0.1685 beta
    D(  130) --> S(    1) amplitude =  0.3465 beta
    D(  130) --> S(    2) amplitude =  0.1512 beta
    D(  131) --> S(    3) amplitude =  0.1962 beta
    D(  135) --> S(    4) amplitude = -0.5224 beta
    D(  137) --> S(    4) amplitude =  0.2101 beta
    D(  138) --> S(    4) amplitude =  0.2779 beta
    D(  139) --> S(    4) amplitude =  0.1581 beta

 Excited state  46: excitation energy (eV) =    5.4211
 Total energy for state 46:                 -3127.71859755 au
    <S**2>     :  8.8120
    Trans. Mom.:  0.0206 X   0.1885 Y  -0.0068 Z
    Strength   :     0.0047793674
    D(  128) --> S(    2) amplitude = -0.1601 beta
    D(  130) --> S(    2) amplitude = -0.2245 beta
    D(  130) --> S(    3) amplitude =  0.1541 beta
    D(  142) --> S(    2) amplitude =  0.7149 beta
    D(  144) --> S(    2) amplitude =  0.4376 beta

 Excited state  47: excitation energy (eV) =    5.4762
 Total energy for state 47:                 -3127.71657253 au
    <S**2>     : 10.5603
    Trans. Mom.: -0.0721 X   0.0695 Y   0.0213 Z
    Strength   :     0.0014059947
    D(  140) --> V(   18) amplitude = -0.1565 alpha
    D(  140) --> V(   23) amplitude = -0.1571 alpha
    D(  140) --> V(   26) amplitude = -0.1741 alpha
    D(  138) --> V(   18) amplitude =  0.1759 beta
    D(  138) --> V(   23) amplitude = -0.1915 beta
    D(  138) --> V(   24) amplitude =  0.1582 beta
    D(  138) --> V(   26) amplitude =  0.1950 beta
    D(  141) --> S(    2) amplitude = -0.1880 beta
    D(  144) --> S(    1) amplitude =  0.1574 beta

 Excited state  48: excitation energy (eV) =    5.4862
 Total energy for state 48:                 -3127.71620328 au
    <S**2>     :  8.8832
    Trans. Mom.:  0.0707 X   0.0296 Y  -0.0319 Z
    Strength   :     0.0009259225
    D(  141) --> S(    2) amplitude =  0.7492 beta
    D(  142) --> S(    2) amplitude = -0.4209 beta
    D(  144) --> S(    2) amplitude =  0.3348 beta

 Excited state  49: excitation energy (eV) =    5.5050
 Total energy for state 49:                 -3127.71551341 au
    <S**2>     :  8.8242
    Trans. Mom.:  0.4143 X  -0.2122 Y  -0.0892 Z
    Strength   :     0.0302921272
    D(  128) --> S(    3) amplitude =  0.1822 beta
    D(  129) --> S(    3) amplitude =  0.2356 beta
    D(  130) --> S(    3) amplitude =  0.5847 beta
    D(  131) --> S(    3) amplitude =  0.1726 beta
    D(  142) --> S(    3) amplitude =  0.3276 beta
    D(  144) --> S(    3) amplitude =  0.2715 beta

 Excited state  50: excitation energy (eV) =    5.5186
 Total energy for state 50:                 -3127.71501296 au
    <S**2>     :  8.9512
    Trans. Mom.: -0.1474 X   0.1879 Y   0.0307 Z
    Strength   :     0.0078386321
    D(  141) --> S(    1) amplitude = -0.4513 beta
    D(  142) --> S(    1) amplitude = -0.3296 beta
    D(  144) --> S(    1) amplitude =  0.6784 beta

 Excited state  51: excitation energy (eV) =    5.5569
 Total energy for state 51:                 -3127.71360854 au
    <S**2>     :  8.8877
    Trans. Mom.: -0.2409 X   0.1663 Y   0.0744 Z
    Strength   :     0.0124212392
    D(  130) --> S(    3) amplitude = -0.2309 beta
    D(  140) --> S(    1) amplitude = -0.1630 beta
    D(  142) --> S(    3) amplitude =  0.6679 beta
    D(  144) --> S(    3) amplitude =  0.3813 beta
    D(  147) --> V(    1) amplitude =  0.1537 beta

 Excited state  52: excitation energy (eV) =    5.5707
 Total energy for state 52:                 -3127.71310096 au
    <S**2>     :  9.5404
    Trans. Mom.:  0.0084 X   0.0917 Y  -0.0082 Z
    Strength   :     0.0011653235
    D(  130) --> S(    3) amplitude =  0.2063 beta
    D(  135) --> S(    5) amplitude =  0.1759 beta
    D(  140) --> S(    1) amplitude = -0.3114 beta
    D(  142) --> S(    3) amplitude = -0.2967 beta
    D(  143) --> S(    1) amplitude =  0.2344 beta
    D(  144) --> S(    3) amplitude = -0.1508 beta
    D(  145) --> V(    3) amplitude =  0.1745 beta
    D(  147) --> V(    1) amplitude =  0.3721 beta
    D(  147) --> V(    3) amplitude =  0.1883 beta

 Excited state  53: excitation energy (eV) =    5.5804
 Total energy for state 53:                 -3127.71274150 au
    <S**2>     :  9.7108
    Trans. Mom.:  0.1335 X  -0.0675 Y   0.0066 Z
    Strength   :     0.0030632795
    S(    5) --> V(    1) amplitude = -0.1692 alpha
    D(  140) --> S(    1) amplitude =  0.4711 beta
    D(  143) --> S(    1) amplitude = -0.3556 beta
    D(  145) --> V(    3) amplitude =  0.1821 beta
    D(  147) --> S(    5) amplitude =  0.1797 beta
    D(  147) --> V(    1) amplitude =  0.3409 beta
    D(  147) --> V(    3) amplitude =  0.1552 beta
    D(  147) --> V(    7) amplitude =  0.1818 beta

 Excited state  54: excitation energy (eV) =    5.5992
 Total energy for state 54:                 -3127.71205259 au
    <S**2>     :  8.8303
    Trans. Mom.:  0.0008 X  -0.0246 Y   0.0732 Z
    Strength   :     0.0008181167
    D(  138) --> S(    2) amplitude =  0.1531 beta
    D(  141) --> S(    2) amplitude = -0.4779 beta
    D(  142) --> S(    2) amplitude = -0.3446 beta
    D(  144) --> S(    2) amplitude =  0.6963 beta

 Excited state  55: excitation energy (eV) =    5.6072
 Total energy for state 55:                 -3127.71175677 au
    <S**2>     :  9.1147
    Trans. Mom.: -0.1321 X   0.2491 Y  -0.0887 Z
    Strength   :     0.0120062706
    S(    3) --> V(    2) amplitude =  0.2170 alpha
    S(    4) --> V(    2) amplitude = -0.2153 alpha
    D(  134) --> S(    4) amplitude =  0.2442 beta
    D(  135) --> S(    5) amplitude =  0.2662 beta
    D(  135) --> V(    1) amplitude = -0.1511 beta
    D(  138) --> S(    5) amplitude = -0.1758 beta
    D(  140) --> S(    1) amplitude =  0.4356 beta
    D(  143) --> S(    1) amplitude = -0.3456 beta

 Excited state  56: excitation energy (eV) =    5.6344
 Total energy for state 56:                 -3127.71075843 au
    <S**2>     :  9.0012
    Trans. Mom.: -0.1432 X   0.0400 Y   0.0541 Z
    Strength   :     0.0034559026
    S(    5) --> V(    1) amplitude =  0.1765 alpha
    D(  141) --> S(    3) amplitude =  0.6648 beta
    D(  142) --> S(    3) amplitude = -0.3057 beta
    D(  144) --> S(    3) amplitude =  0.3174 beta

 Excited state  57: excitation energy (eV) =    5.6400
 Total energy for state 57:                 -3127.71055377 au
    <S**2>     :  9.3074
    Trans. Mom.:  0.1518 X  -0.0467 Y  -0.0785 Z
    Strength   :     0.0043382561
    S(    3) --> V(    4) amplitude =  0.1520 alpha
    S(    5) --> V(    1) amplitude = -0.3497 alpha
    S(    5) --> V(    2) amplitude =  0.1751 alpha
    S(    5) --> V(    4) amplitude = -0.2458 alpha
    S(    5) --> V(    6) amplitude =  0.1931 alpha
    D(  141) --> S(    3) amplitude =  0.3880 beta
    D(  142) --> S(    3) amplitude = -0.1549 beta
    D(  144) --> S(    3) amplitude =  0.2251 beta
    D(  147) --> V(    1) amplitude = -0.1799 beta

 Excited state  58: excitation energy (eV) =    5.6598
 Total energy for state 58:                 -3127.70982591 au
    <S**2>     :  8.9676
    Trans. Mom.: -0.2839 X   0.1900 Y   0.0950 Z
    Strength   :     0.0174313499
    D(  134) --> S(    4) amplitude = -0.5442 beta
    D(  136) --> S(    4) amplitude =  0.3514 beta
    D(  139) --> S(    4) amplitude =  0.2079 beta

 Excited state  59: excitation energy (eV) =    5.6618
 Total energy for state 59:                 -3127.70975303 au
    <S**2>     :  9.3224
    Trans. Mom.: -0.3690 X  -0.0075 Y  -0.1513 Z
    Strength   :     0.0220750724
    S(    3) --> V(    2) amplitude = -0.3092 alpha
    S(    3) --> V(    5) amplitude = -0.1759 alpha
    S(    4) --> V(    2) amplitude =  0.2362 alpha
    D(  123) --> S(    1) amplitude =  0.1525 beta
    D(  128) --> S(    1) amplitude = -0.1716 beta
    D(  146) --> V(    1) amplitude =  0.3324 beta
    D(  147) --> V(    3) amplitude =  0.1574 beta

 Excited state  60: excitation energy (eV) =    5.6700
 Total energy for state 60:                 -3127.70945218 au
    <S**2>     :  9.4513
    Trans. Mom.:  0.0432 X   0.0285 Y  -0.1165 Z
    Strength   :     0.0022572510
    S(    3) --> V(    2) amplitude =  0.1798 alpha
    S(    4) --> V(    1) amplitude =  0.2265 alpha
    S(    5) --> V(    1) amplitude =  0.1934 alpha
    S(    5) --> V(    4) amplitude =  0.2012 alpha
    D(  123) --> S(    1) amplitude =  0.1698 beta
    D(  128) --> S(    1) amplitude = -0.1900 beta
    D(  134) --> S(    4) amplitude = -0.3103 beta
    D(  146) --> V(    1) amplitude =  0.3230 beta

 Excited state  61: excitation energy (eV) =    5.6825
 Total energy for state 61:                 -3127.70898951 au
    <S**2>     : 10.7000
    Trans. Mom.:  0.0061 X  -0.0145 Y   0.0375 Z
    Strength   :     0.0002302409
    D(  141) --> V(   34) amplitude =  0.1621 alpha
    D(  146) --> V(   34) amplitude = -0.1954 alpha
    D(  146) --> V(   38) amplitude =  0.1507 alpha
    D(  141) --> V(   34) amplitude =  0.2180 beta
    D(  141) --> V(   38) amplitude = -0.1602 beta

 Excited state  62: excitation energy (eV) =    5.6864
 Total energy for state 62:                 -3127.70884758 au
    <S**2>     :  8.8822
    Trans. Mom.: -0.0971 X   0.0488 Y  -0.4649 Z
    Strength   :     0.0317527626
    D(  123) --> S(    2) amplitude =  0.2940 beta
    D(  128) --> S(    2) amplitude = -0.3390 beta
    D(  134) --> S(    4) amplitude = -0.1971 beta
    D(  134) --> S(    5) amplitude =  0.2913 beta
    D(  147) --> V(    3) amplitude =  0.1596 beta

 Excited state  63: excitation energy (eV) =    5.7025
 Total energy for state 63:                 -3127.70825563 au
    <S**2>     :  9.3168
    Trans. Mom.: -0.1048 X  -0.0495 Y   0.1055 Z
    Strength   :     0.0034313806
    S(    4) --> V(    1) amplitude =  0.1599 alpha
    D(  123) --> S(    1) amplitude = -0.3926 beta
    D(  124) --> S(    1) amplitude =  0.1579 beta
    D(  126) --> S(    1) amplitude = -0.1795 beta
    D(  128) --> S(    1) amplitude =  0.4621 beta
    D(  140) --> S(    1) amplitude =  0.1634 beta
    D(  146) --> V(    1) amplitude =  0.2642 beta

 Excited state  64: excitation energy (eV) =    5.7142
 Total energy for state 64:                 -3127.70782727 au
    <S**2>     : 10.5971
    Trans. Mom.: -0.0074 X   0.0024 Y   0.0033 Z
    Strength   :     0.0000099472
    S(    2) --> V(   34) amplitude =  0.2280 alpha
    S(    2) --> V(   35) amplitude =  0.1557 alpha
    S(    2) --> V(   38) amplitude = -0.1692 alpha
    D(  141) --> S(    3) amplitude =  0.1755 beta
    D(  144) --> V(   34) amplitude = -0.2494 beta
    D(  144) --> V(   35) amplitude =  0.1532 beta
    D(  144) --> V(   37) amplitude =  0.1507 beta
    D(  144) --> V(   38) amplitude =  0.1761 beta

 Excited state  65: excitation energy (eV) =    5.7227
 Total energy for state 65:                 -3127.70751207 au
    <S**2>     :  9.1527
    Trans. Mom.:  0.1987 X   0.0287 Y   0.0743 Z
    Strength   :     0.0064251494
    S(    3) --> V(    1) amplitude = -0.2175 alpha
    S(    3) --> V(    2) amplitude = -0.1730 alpha
    S(    4) --> V(    1) amplitude =  0.4132 alpha
    S(    4) --> V(    3) amplitude =  0.1895 alpha
    S(    4) --> V(    4) amplitude = -0.2088 alpha
    D(  140) --> S(    1) amplitude = -0.1995 beta
    D(  140) --> S(    2) amplitude = -0.2149 beta
    D(  143) --> S(    1) amplitude = -0.3928 beta
    D(  146) --> V(    1) amplitude = -0.1774 beta

 Excited state  66: excitation energy (eV) =    5.7258
 Total energy for state 66:                 -3127.70739937 au
    <S**2>     :  9.1821
    Trans. Mom.: -0.0465 X   0.1362 Y   0.1307 Z
    Strength   :     0.0053008559
    S(    4) --> V(    1) amplitude =  0.2265 alpha
    D(  140) --> S(    1) amplitude =  0.3599 beta
    D(  143) --> S(    1) amplitude =  0.4240 beta
    D(  143) --> S(    2) amplitude =  0.2179 beta
    D(  145) --> V(    1) amplitude =  0.2101 beta
    D(  146) --> V(    2) amplitude = -0.1535 beta
    D(  147) --> V(    3) amplitude =  0.2371 beta

 Excited state  67: excitation energy (eV) =    5.7300
 Total energy for state 67:                 -3127.70724593 au
    <S**2>     :  8.8893
    Trans. Mom.:  0.0516 X   0.0627 Y   0.1896 Z
    Strength   :     0.0059727806
    S(    4) --> V(    1) amplitude =  0.2445 alpha
    D(  140) --> S(    2) amplitude =  0.5992 beta
    D(  143) --> S(    1) amplitude =  0.1959 beta
    D(  143) --> S(    2) amplitude = -0.5600 beta

 Excited state  68: excitation energy (eV) =    5.7417
 Total energy for state 68:                 -3127.70681391 au
    <S**2>     :  9.9159
    Trans. Mom.:  0.0076 X   0.0002 Y   0.0396 Z
    Strength   :     0.0002283448
    S(    3) --> V(    1) amplitude =  0.3533 alpha
    S(    3) --> V(    3) amplitude = -0.1589 alpha
    D(  128) --> S(    1) amplitude =  0.1527 beta
    D(  140) --> S(    1) amplitude = -0.2657 beta
    D(  143) --> S(    1) amplitude = -0.2957 beta
    D(  143) --> S(    2) amplitude = -0.1995 beta
    D(  145) --> V(    1) amplitude =  0.2135 beta
    D(  147) --> V(    3) amplitude =  0.2657 beta

 Excited state  69: excitation energy (eV) =    5.7483
 Total energy for state 69:                 -3127.70657232 au
    <S**2>     :  9.0518
    Trans. Mom.:  0.1869 X  -0.0166 Y  -0.0495 Z
    Strength   :     0.0053029796
    S(    3) --> V(    1) amplitude =  0.1728 alpha
    D(  141) --> S(    3) amplitude = -0.4240 beta
    D(  142) --> S(    3) amplitude = -0.2954 beta
    D(  144) --> S(    3) amplitude =  0.5952 beta

 Excited state  70: excitation energy (eV) =    5.7575
 Total energy for state 70:                 -3127.70623648 au
    <S**2>     :  8.9738
    Trans. Mom.:  0.1874 X  -0.0998 Y   0.1272 Z
    Strength   :     0.0086406691
    S(    3) --> V(    1) amplitude =  0.3485 alpha
    S(    3) --> V(    5) amplitude = -0.2085 alpha
    S(    4) --> V(    1) amplitude =  0.1996 alpha
    D(  123) --> S(    2) amplitude =  0.1802 beta
    D(  128) --> S(    2) amplitude = -0.2008 beta
    D(  140) --> S(    1) amplitude =  0.1976 beta
    D(  141) --> S(    3) amplitude =  0.1949 beta
    D(  143) --> S(    1) amplitude =  0.1647 beta
    D(  144) --> S(    3) amplitude = -0.2541 beta

 Excited state  71: excitation energy (eV) =    5.7814
 Total energy for state 71:                 -3127.70535653 au
    <S**2>     :  9.3725
    Trans. Mom.: -0.4562 X   0.0701 Y   0.3882 Z
    Strength   :     0.0515137952
    S(    3) --> V(    2) amplitude =  0.2492 alpha
    S(    4) --> V(    2) amplitude =  0.3904 alpha
    S(    4) --> V(    5) amplitude =  0.1927 alpha
    D(  145) --> V(    1) amplitude = -0.1507 beta
    D(  146) --> V(    5) amplitude = -0.1793 beta
    D(  146) --> V(    7) amplitude = -0.2239 beta
    D(  147) --> V(    3) amplitude = -0.1892 beta

 Excited state  72: excitation energy (eV) =    5.7818
 Total energy for state 72:                 -3127.70534042 au
    <S**2>     : 10.5137
    Trans. Mom.: -0.1662 X   0.0046 Y   0.1290 Z
    Strength   :     0.0062722886
    D(  142) --> V(   41) amplitude =  0.2233 alpha
    D(  142) --> V(   44) amplitude =  0.1651 alpha
    S(    4) --> V(    2) amplitude =  0.1922 alpha
    D(  139) --> V(   40) amplitude = -0.1636 beta
    D(  139) --> V(   41) amplitude = -0.2560 beta
    D(  139) --> V(   44) amplitude = -0.1797 beta

 Excited state  73: excitation energy (eV) =    5.7852
 Total energy for state 73:                 -3127.70521862 au
    <S**2>     : 10.5896
    Trans. Mom.: -0.0474 X   0.0014 Y   0.0402 Z
    Strength   :     0.0005480691
    S(    1) --> V(   34) amplitude = -0.1535 alpha
    S(    1) --> V(   40) amplitude =  0.1737 alpha
    S(    1) --> V(   41) amplitude = -0.2589 alpha
    S(    1) --> V(   44) amplitude = -0.1905 alpha
    D(  140) --> S(    2) amplitude = -0.1688 beta
    D(  143) --> V(   33) amplitude = -0.1637 beta
    D(  143) --> V(   34) amplitude =  0.1594 beta
    D(  143) --> V(   40) amplitude =  0.1869 beta
    D(  143) --> V(   41) amplitude =  0.2845 beta
    D(  143) --> V(   44) amplitude =  0.2015 beta

 Excited state  74: excitation energy (eV) =    5.8087
 Total energy for state 74:                 -3127.70435461 au
    <S**2>     :  8.9658
    Trans. Mom.:  0.5149 X  -0.1246 Y   0.0288 Z
    Strength   :     0.0400598882
    S(    4) --> V(    2) amplitude = -0.1905 alpha
    D(  123) --> S(    2) amplitude = -0.2555 beta
    D(  128) --> S(    2) amplitude =  0.2961 beta
    D(  128) --> S(    3) amplitude =  0.1563 beta
    D(  133) --> S(    4) amplitude = -0.1702 beta
    D(  134) --> S(    5) amplitude =  0.4367 beta
    D(  134) --> V(    1) amplitude = -0.2128 beta

 Excited state  75: excitation energy (eV) =    5.8140
 Total energy for state 75:                 -3127.70415864 au
    <S**2>     :  9.2886
    Trans. Mom.:  0.6282 X  -0.1438 Y  -0.3304 Z
    Strength   :     0.0747072956
    S(    4) --> V(    2) amplitude =  0.3408 alpha
    S(    4) --> V(    5) amplitude =  0.1835 alpha
    D(  123) --> S(    2) amplitude = -0.1824 beta
    D(  128) --> S(    2) amplitude =  0.2194 beta
    D(  134) --> S(    4) amplitude =  0.2775 beta
    D(  135) --> S(    5) amplitude = -0.1858 beta
    D(  136) --> S(    4) amplitude =  0.1910 beta
    D(  146) --> V(    2) amplitude =  0.1517 beta
    D(  146) --> V(    5) amplitude =  0.1667 beta
    D(  146) --> V(    7) amplitude =  0.1772 beta

 Excited state  76: excitation energy (eV) =    5.8358
 Total energy for state 76:                 -3127.70335577 au
    <S**2>     :  8.9718
    Trans. Mom.: -0.2150 X   0.3398 Y   0.1395 Z
    Strength   :     0.0259029490
    D(  122) --> S(    1) amplitude =  0.1810 beta
    D(  123) --> S(    3) amplitude =  0.1612 beta
    D(  128) --> S(    3) amplitude = -0.1773 beta
    D(  135) --> S(    1) amplitude =  0.1747 beta
    D(  137) --> S(    1) amplitude = -0.3297 beta
    D(  138) --> S(    1) amplitude =  0.5771 beta
    D(  141) --> S(    1) amplitude =  0.1950 beta

 Excited state  77: excitation energy (eV) =    5.8569
 Total energy for state 77:                 -3127.70258134 au
    <S**2>     : 10.6082
    Trans. Mom.: -0.0676 X  -0.0036 Y   0.0103 Z
    Strength   :     0.0006719231
    D(  147) --> V(   34) amplitude = -0.2693 alpha
    D(  147) --> V(   35) amplitude = -0.1777 alpha
    D(  147) --> V(   37) amplitude =  0.1754 alpha
    D(  147) --> V(   38) amplitude =  0.1929 alpha
    D(  142) --> V(   34) amplitude =  0.2828 beta
    D(  142) --> V(   35) amplitude = -0.1673 beta
    D(  142) --> V(   37) amplitude = -0.1704 beta
    D(  142) --> V(   38) amplitude = -0.1922 beta
    D(  142) --> V(   39) amplitude =  0.1532 beta

 Excited state  78: excitation energy (eV) =    5.8613
 Total energy for state 78:                 -3127.70242169 au
    <S**2>     :  8.9755
    Trans. Mom.: -0.1338 X  -0.0125 Y  -0.0070 Z
    Strength   :     0.0026012732
    D(  123) --> S(    3) amplitude = -0.2770 beta
    D(  128) --> S(    3) amplitude =  0.3033 beta
    D(  138) --> S(    1) amplitude =  0.1514 beta
    D(  140) --> S(    2) amplitude = -0.1586 beta
    D(  140) --> S(    3) amplitude = -0.3726 beta
    D(  143) --> S(    3) amplitude =  0.3948 beta

 Excited state  79: excitation energy (eV) =    5.8699
 Total energy for state 79:                 -3127.70210308 au
    <S**2>     :  8.8226
    Trans. Mom.: -0.0258 X  -0.0587 Y  -0.0020 Z
    Strength   :     0.0005921587
    D(  137) --> S(    1) amplitude = -0.1604 beta
    D(  138) --> S(    1) amplitude =  0.1817 beta
    D(  140) --> S(    2) amplitude =  0.4113 beta
    D(  140) --> S(    3) amplitude = -0.3179 beta
    D(  143) --> S(    2) amplitude =  0.4644 beta
    D(  143) --> S(    3) amplitude =  0.2580 beta

 Excited state  80: excitation energy (eV) =    5.8720
 Total energy for state 80:                 -3127.70202694 au
    <S**2>     :  8.8319
    Trans. Mom.:  0.0227 X  -0.0198 Y   0.0162 Z
[...]
  1.3321   1.3351   1.3405   1.3418   1.3450   1.3466   1.3490   1.3575
  1.3584   1.3608   1.3678   1.3709   1.3711   1.3781   1.3807   1.3844
  1.3868   1.3921   1.3931   1.4002   1.4032   1.4143   1.4162   1.4175
  1.4229   1.4282   1.4333   1.4344   1.4408   1.4444   1.4502   1.4580
  1.4690   1.4724   1.4745   1.4797   1.4818   1.4830   1.4857   1.4927
  1.4985   1.5024   1.5088   1.5107   1.5173   1.5232   1.5283   1.5341
  1.5373   1.5423   1.5465   1.5501   1.5535   1.5600   1.5625   1.5684
  1.5714   1.5744   1.5814   1.5892   1.5926   1.5940   1.5983   1.6025
  1.6055   1.6122   1.6149   1.6182   1.6227   1.6314   1.6328   1.6341
  1.6413   1.6471   1.6524   1.6559   1.6576   1.6607   1.6637   1.6681
  1.6704   1.6751   1.6778   1.6799   1.6883   1.6904   1.6956   1.6986
  1.7040   1.7070   1.7136   1.7182   1.7190   1.7221   1.7271   1.7300
  1.7307   1.7321   1.7420   1.7464   1.7494   1.7554   1.7612   1.7616
  1.7705   1.7756   1.7796   1.7837   1.7863   1.7888   1.7907   1.8002
  1.8040   1.8057   1.8075   1.8151   1.8166   1.8204   1.8270   1.8275
  1.8325   1.8376   1.8400   1.8468   1.8502   1.8518   1.8532   1.8620
  1.8636   1.8656   1.8719   1.8789   1.8817   1.8857   1.8928   1.9000
  1.9008   1.9031   1.9066   1.9113   1.9172   1.9201   1.9244   1.9255
  1.9344   1.9407   1.9428   1.9495   1.9543   1.9574   1.9605   1.9623
  1.9686   1.9699   1.9720   1.9758   1.9845   1.9870   1.9919   1.9943
  1.9970   2.0038   2.0068   2.0118   2.0138   2.0167   2.0196   2.0223
  2.0279   2.0375   2.0379   2.0407   2.0455   2.0464   2.0520   2.0588
  2.0625   2.0673   2.0703   2.0729   2.0740   2.0769   2.0805   2.0847
  2.0873   2.0900   2.0974   2.0995   2.1070   2.1090   2.1150   2.1181
  2.1206   2.1232   2.1297   2.1322   2.1336   2.1381   2.1440   2.1461
  2.1538   2.1570   2.1582   2.1689   2.1745   2.1766   2.1789   2.1848
  2.1895   2.1916   2.1946   2.2036   2.2050   2.2143   2.2187   2.2241
  2.2254   2.2356   2.2379   2.2395   2.2417   2.2468   2.2493   2.2594
  2.2597   2.2693   2.2783   2.2811   2.2903   2.2933   2.2956   2.3043
  2.3058   2.3097   2.3184   2.3225   2.3302   2.3337   2.3350   2.3382
  2.3439   2.3501   2.3548   2.3586   2.3652   2.3681   2.3726   2.3759
  2.3791   2.3826   2.3896   2.3917   2.4074   2.4129   2.4167   2.4259
  2.4309   2.4383   2.4413   2.4452   2.4509   2.4561   2.4608   2.4695
  2.4714   2.4769   2.4781   2.4848   2.4921   2.5009   2.5045   2.5124
  2.5167   2.5301   2.5345   2.5352   2.5415   2.5451   2.5502   2.5583
  2.5653   2.5699   2.5720   2.5805   2.5835   2.5937   2.5972   2.6014
  2.6202   2.6225   2.6261   2.6331   2.6365   2.6423   2.6524   2.6613
  2.6627   2.6707   2.6737   2.6768   2.6812   2.6877   2.6985   2.6995
  2.7104   2.7159   2.7229   2.7306   2.7350   2.7414   2.7504   2.7548
  2.7624   2.7647   2.7703   2.7768   2.7877   2.7959   2.7997   2.8064
  2.8209   2.8280   2.8293   2.8397   2.8418   2.8532   2.8536   2.8593
  2.8634   2.8692   2.8783   2.8840   2.9002   2.9015   2.9131   2.9251
  2.9422   2.9486   2.9535   2.9612   2.9693   2.9767   2.9934   2.9958
  3.0087   3.0102   3.0207   3.0311   3.0428   3.0477   3.0565   3.0726
  3.0915   3.0969   3.1054   3.1226   3.1422   3.1507   3.1541   3.1650
  3.1879   3.2180   3.2408   3.2742   3.2804   3.2994   3.3402   3.3508
  3.3611   3.3682   3.3840   3.3936   3.4241   3.4633   3.4817   3.4888
  3.5137   3.5162   3.5199   3.5278   3.5466   3.5571   3.5584   3.5606
  3.5647   3.5781   3.5833   3.5868   3.5895   3.5997   3.6059   3.6089
  3.6115   3.6166   3.6202   3.6272   3.6310   3.6344   3.6368   3.6434
  3.6583   3.6739   3.6766   3.6861   3.6948   3.7014   3.7132   3.7305
  3.7376   3.7439   3.7474   3.7541   3.7613   3.7809   3.7872   3.7957
  3.8232   3.8335   3.8424   3.8449   3.8600   3.8696   3.8749   3.8780
  3.8993   3.9205   3.9331   3.9383   3.9550   3.9690   3.9769   3.9952
  4.0184   4.0331   4.0437   4.0770   4.0876   4.1186   4.1269   4.1509
  4.1729   4.2236   4.2349   4.2538   4.2898   4.3309   4.3650   4.4868
  4.5306   4.5599   4.5808   4.6761
 
 Beta MOs
 -- Occupied --
******** -30.1437 -26.0144 -26.0126 -26.0115 -19.2132 -19.2114 -19.2110
-19.2093 -19.2063 -19.2002 -19.1883 -19.1698 -19.1663 -19.1651 -19.1628
-14.4913 -14.4910 -14.4217 -14.4180 -10.3715 -10.3694 -10.3688 -10.3648
-10.3497 -10.3469 -10.3327 -10.2942 -10.2885 -10.2880 -10.2846 -10.2643
-10.2641 -10.2637 -10.2538 -10.2504 -10.2456 -10.2444 -10.2435 -10.2432
-10.2388  -3.5109  -2.2727  -2.2697  -2.2682  -1.1696  -1.1671  -1.1264
 -1.1204  -1.1135  -1.1101  -1.0937  -1.0928  -1.0906  -1.0276  -1.0235
 -1.0019  -0.9981  -0.9378  -0.9333  -0.8805  -0.8758  -0.8607  -0.8440
 -0.8320  -0.8163  -0.8079  -0.7987  -0.7766  -0.7678  -0.7239  -0.7192
 -0.6804  -0.6725  -0.6537  -0.6403  -0.6324  -0.6102  -0.6071  -0.6034
 -0.5978  -0.5862  -0.5752  -0.5711  -0.5689  -0.5635  -0.5616  -0.5599
 -0.5538  -0.5443  -0.5420  -0.5294  -0.5272  -0.5259  -0.5207  -0.5116
 -0.5081  -0.5024  -0.5009  -0.4921  -0.4904  -0.4853  -0.4834  -0.4815
 -0.4788  -0.4740  -0.4724  -0.4717  -0.4677  -0.4649  -0.4622  -0.4598
 -0.4585  -0.4476  -0.4439  -0.4402  -0.4378  -0.4350  -0.4236  -0.4223
 -0.4113  -0.4050  -0.3993  -0.3946  -0.3919  -0.3881  -0.3861  -0.3825
 -0.3797  -0.3767  -0.3744  -0.3718  -0.3645  -0.3516  -0.3420  -0.3359
 -0.3262  -0.3233  -0.3197  -0.3121  -0.3095  -0.3083  -0.3067  -0.3032
 -0.2805  -0.2736  -0.2659
 -- Virtual --
 -0.0446  -0.0415  -0.0365   0.0016   0.0113   0.0134   0.0183   0.0195
  0.0212   0.0276   0.0306   0.0318   0.0335   0.0357   0.0393   0.0429
  0.0439   0.0466   0.0498   0.0511   0.0555   0.0561   0.0591   0.0631
  0.0646   0.0652   0.0665   0.0697   0.0712   0.0721   0.0729   0.0787
  0.0794   0.0805   0.0823   0.0832   0.0856   0.0880   0.0891   0.0917
  0.0926   0.0947   0.0967   0.0978   0.1021   0.1042   0.1061   0.1078
  0.1092   0.1117   0.1149   0.1155   0.1177   0.1183   0.1215   0.1230
  0.1252   0.1253   0.1281   0.1313   0.1319   0.1333   0.1347   0.1357
  0.1376   0.1386   0.1418   0.1427   0.1446   0.1456   0.1479   0.1500
  0.1517   0.1524   0.1547   0.1564   0.1588   0.1597   0.1615   0.1640
  0.1647   0.1668   0.1689   0.1694   0.1721   0.1732   0.1770   0.1788
  0.1810   0.1828   0.1832   0.1834   0.1855   0.1866   0.1895   0.1923
  0.1947   0.1972   0.1984   0.1996   0.2009   0.2026   0.2060   0.2077
  0.2081   0.2103   0.2109   0.2140   0.2155   0.2189   0.2195   0.2215
  0.2242   0.2250   0.2264   0.2284   0.2312   0.2329   0.2342   0.2361
  0.2376   0.2402   0.2411   0.2433   0.2445   0.2468   0.2486   0.2501
  0.2512   0.2523   0.2552   0.2563   0.2569   0.2594   0.2609   0.2643
  0.2675   0.2697   0.2721   0.2730   0.2738   0.2757   0.2787   0.2803
  0.2811   0.2833   0.2853   0.2873   0.2879   0.2891   0.2930   0.2937
  0.2960   0.2980   0.3006   0.3016   0.3021   0.3046   0.3054   0.3067
  0.3072   0.3114   0.3122   0.3146   0.3173   0.3191   0.3205   0.3216
  0.3229   0.3260   0.3266   0.3285   0.3302   0.3318   0.3332   0.3360
  0.3370   0.3394   0.3416   0.3422   0.3447   0.3455   0.3473   0.3505
  0.3520   0.3526   0.3544   0.3563   0.3579   0.3593   0.3600   0.3620
  0.3637   0.3648   0.3664   0.3679   0.3710   0.3743   0.3768   0.3772
  0.3806   0.3826   0.3831   0.3856   0.3868   0.3878   0.3916   0.3943
  0.3959   0.3978   0.4008   0.4041   0.4058   0.4073   0.4094   0.4103
  0.4126   0.4144   0.4159   0.4187   0.4208   0.4233   0.4241   0.4258
  0.4292   0.4296   0.4317   0.4346   0.4369   0.4384   0.4386   0.4412
  0.4450   0.4460   0.4475   0.4501   0.4531   0.4562   0.4587   0.4616
  0.4638   0.4656   0.4662   0.4666   0.4691   0.4716   0.4771   0.4801
  0.4817   0.4821   0.4855   0.4857   0.4899   0.4929   0.4934   0.4944
  0.4972   0.5000   0.5022   0.5058   0.5070   0.5110   0.5140   0.5142
  0.5182   0.5205   0.5217   0.5225   0.5237   0.5273   0.5286   0.5293
  0.5321   0.5337   0.5415   0.5433   0.5438   0.5458   0.5490   0.5523
  0.5537   0.5546   0.5567   0.5594   0.5620   0.5645   0.5671   0.5710
  0.5717   0.5743   0.5759   0.5773   0.5789   0.5854   0.5876   0.5897
  0.5931   0.5937   0.5946   0.5984   0.6005   0.6016   0.6057   0.6073
  0.6082   0.6116   0.6138   0.6150   0.6152   0.6179   0.6215   0.6255
  0.6267   0.6282   0.6303   0.6336   0.6345   0.6362   0.6386   0.6425
  0.6444   0.6462   0.6486   0.6502   0.6527   0.6548   0.6567   0.6605
  0.6607   0.6632   0.6656   0.6670   0.6698   0.6715   0.6742   0.6757
  0.6789   0.6823   0.6861   0.6879   0.6896   0.6918   0.6938   0.6971
  0.6993   0.7008   0.7039   0.7067   0.7079   0.7093   0.7126   0.7133
  0.7163   0.7179   0.7219   0.7239   0.7250   0.7256   0.7305   0.7342
  0.7352   0.7364   0.7396   0.7429   0.7435   0.7455   0.7496   0.7503
  0.7551   0.7554   0.7579   0.7636   0.7641   0.7652   0.7676   0.7719
  0.7739   0.7742   0.7788   0.7792   0.7808   0.7812   0.7835   0.7856
  0.7896   0.7907   0.7943   0.7981   0.8022   0.8038   0.8052   0.8060
  0.8106   0.8110   0.8140   0.8143   0.8165   0.8195   0.8217   0.8226
  0.8310   0.8322   0.8353   0.8366   0.8399   0.8414   0.8420   0.8470
  0.8475   0.8538   0.8560   0.8593   0.8624   0.8670   0.8677   0.8718
  0.8743   0.8765   0.8779   0.8794   0.8849   0.8860   0.8887   0.8896
  0.8923   0.8956   0.8990   0.8996   0.9034   0.9076   0.9109   0.9111
  0.9153   0.9198   0.9254   0.9281   0.9315   0.9324   0.9336   0.9358
  0.9402   0.9430   0.9504   0.9519   0.9543   0.9560   0.9593   0.9618
  0.9671   0.9713   0.9737   0.9779   0.9792   0.9832   0.9845   0.9871
  0.9879   0.9938   0.9980   1.0003   1.0019   1.0052   1.0071   1.0155
  1.0161   1.0194   1.0218   1.0265   1.0345   1.0360   1.0381   1.0436
  1.0449   1.0507   1.0524   1.0546   1.0568   1.0637   1.0658   1.0699
  1.0757   1.0780   1.0812   1.0839   1.0908   1.0958   1.0970   1.0998
  1.1027   1.1060   1.1128   1.1170   1.1178   1.1229   1.1237   1.1258
  1.1285   1.1327   1.1386   1.1426   1.1474   1.1493   1.1524   1.1598
  1.1635   1.1671   1.1691   1.1759   1.1786   1.1818   1.1877   1.1900
  1.1938   1.1978   1.2010   1.2049   1.2066   1.2121   1.2144   1.2185
  1.2252   1.2263   1.2293   1.2332   1.2359   1.2404   1.2494   1.2505
  1.2546   1.2620   1.2659   1.2696   1.2741   1.2756   1.2830   1.2857
  1.2945   1.2958   1.2981   1.2999   1.3033   1.3082   1.3111   1.3134
  1.3158   1.3211   1.3241   1.3268   1.3315   1.3341   1.3384   1.3416
  1.3436   1.3481   1.3498   1.3514   1.3605   1.3613   1.3635   1.3694
  1.3724   1.3749   1.3811   1.3837   1.3888   1.3897   1.3947   1.3954
  1.4012   1.4057   1.4156   1.4172   1.4195   1.4252   1.4293   1.4349
  1.4359   1.4430   1.4480   1.4521   1.4594   1.4706   1.4743   1.4771
  1.4819   1.4842   1.4849   1.4877   1.4961   1.5006   1.5045   1.5111
  1.5128   1.5184   1.5250   1.5311   1.5368   1.5408   1.5452   1.5479
  1.5521   1.5551   1.5613   1.5658   1.5716   1.5734   1.5765   1.5827
  1.5913   1.5948   1.5959   1.6003   1.6041   1.6076   1.6144   1.6177
  1.6200   1.6252   1.6339   1.6345   1.6373   1.6440   1.6505   1.6553
  1.6582   1.6601   1.6650   1.6665   1.6714   1.6745   1.6774   1.6805
  1.6847   1.6922   1.6936   1.7002   1.7020   1.7091   1.7114   1.7166
  1.7200   1.7214   1.7251   1.7291   1.7318   1.7336   1.7352   1.7450
  1.7501   1.7527   1.7578   1.7627   1.7638   1.7733   1.7768   1.7816
  1.7876   1.7894   1.7908   1.7939   1.8020   1.8051   1.8077   1.8110
  1.8168   1.8179   1.8240   1.8288   1.8313   1.8357   1.8394   1.8449
  1.8490   1.8521   1.8543   1.8560   1.8644   1.8660   1.8693   1.8757
  1.8812   1.8842   1.8878   1.8947   1.9019   1.9024   1.9071   1.9100
  1.9140   1.9184   1.9270   1.9273   1.9286   1.9373   1.9431   1.9458
  1.9515   1.9559   1.9596   1.9622   1.9648   1.9707   1.9723   1.9743
  1.9806   1.9859   1.9892   1.9944   1.9979   1.9998   2.0053   2.0097
  2.0139   2.0159   2.0195   2.0209   2.0256   2.0313   2.0393   2.0400
  2.0456   2.0474   2.0480   2.0541   2.0608   2.0648   2.0702   2.0721
  2.0742   2.0771   2.0780   2.0831   2.0873   2.0893   2.0935   2.0995
  2.1008   2.1098   2.1115   2.1175   2.1196   2.1234   2.1253   2.1313
  2.1346   2.1378   2.1406   2.1474   2.1482   2.1576   2.1605   2.1645
  2.1705   2.1788   2.1797   2.1825   2.1889   2.1920   2.1945   2.1968
  2.2060   2.2109   2.2187   2.2208   2.2258   2.2285   2.2377   2.2397
  2.2421   2.2435   2.2489   2.2543   2.2610   2.2646   2.2728   2.2832
  2.2841   2.2946   2.2957   2.2983   2.3079   2.3090   2.3117   2.3206
  2.3251   2.3346   2.3369   2.3381   2.3408   2.3475   2.3534   2.3587
  2.3618   2.3682   2.3730   2.3768   2.3780   2.3811   2.3866   2.3928
  2.3990   2.4082   2.4179   2.4195   2.4277   2.4330   2.4401   2.4437
  2.4482   2.4529   2.4595   2.4625   2.4734   2.4751   2.4791   2.4809
  2.4869   2.4956   2.5034   2.5056   2.5150   2.5184   2.5314   2.5356
  2.5370   2.5434   2.5470   2.5509   2.5595   2.5667   2.5727   2.5736
  2.5832   2.5873   2.5952   2.5993   2.6028   2.6211   2.6248   2.6309
  2.6346   2.6381   2.6433   2.6534   2.6622   2.6646   2.6721   2.6768
  2.6791   2.6881   2.6889   2.7000   2.7010   2.7124   2.7184   2.7243
  2.7324   2.7363   2.7430   2.7543   2.7566   2.7646   2.7672   2.7720
  2.7796   2.7896   2.7973   2.8037   2.8080   2.8222   2.8291   2.8320
  2.8410   2.8433   2.8553   2.8582   2.8621   2.8650   2.8701   2.8813
  2.8879   2.9012   2.9068   2.9178   2.9325   2.9451   2.9530   2.9586
  2.9625   2.9738   2.9861   2.9964   3.0003   3.0112   3.0159   3.0226
  3.0355   3.0454   3.0491   3.0708   3.0747   3.0942   3.1071   3.1173
  3.1390   3.1493   3.1553   3.1609   3.1725   3.1936   3.2201   3.2452
  3.2766   3.2834   3.3009   3.3465   3.3520   3.3642   3.3754   3.3858
  3.3972   3.4262   3.4662   3.4834   3.4902   3.5161   3.5181   3.5216
  3.5297   3.5481   3.5609   3.5616   3.5652   3.5721   3.5790   3.5870
  3.5888   3.5924   3.6024   3.6090   3.6116   3.6204   3.6236   3.6238
  3.6284   3.6361   3.6376   3.6429   3.6491   3.6651   3.6815   3.6829
  3.6909   3.7028   3.7074   3.7199   3.7352   3.7464   3.7512   3.7603
  3.7643   3.7730   3.7847   3.7977   3.8048   3.8287   3.8437   3.8544
  3.8610   3.8673   3.8770   3.8863   3.8947   3.9079   3.9352   3.9427
  3.9485   3.9745   3.9879   3.9982   4.0058   4.0336   4.0519   4.0787
  4.1027   4.1147   4.1382   4.1536   4.1883   4.2183   4.2635   4.2694
  4.3089   4.3133   4.3938   4.4275   4.5073   4.5755   4.6567   4.6750
  4.7651
 --------------------------------------------------------------
 
          Ground-State Mulliken Net Atomic Charges

     Atom                 Charge (a.u.)    Spin (a.u.)
  --------------------------------------------------------
      1 N                     1.274849       0.018286
      2 C                     1.363673      -0.003910
      3 H                    -0.630460      -0.000262
      4 N                     0.064971       0.006255
      5 H                    -0.054104       0.000558
      6 C                     0.923591      -0.000925
      7 O                    -0.880757       0.000074
      8 C                    -1.116424      -0.000262
      9 O                    -0.685319       0.097750
     10 C                    -0.849998      -0.018653
     11 C                     1.580302       0.004884
     12 H                    -0.401953       0.000198
     13 H                    -0.138978       0.000289
     14 C                     2.927438       0.039929
     15 H                    -1.500218      -0.000782
     16 C                    -0.213377      -0.024721
     17 C                     0.742741       0.016003
     18 H                    -0.354359       0.000384
     19 H                    -0.440640       0.000985
     20 C                     0.507067       0.000007
     21 O                    -0.914589      -0.000003
     22 N                     0.130834      -0.001012
     23 H                    -0.105671       0.001239
     24 C                     0.819611       0.000018
     25 O                    -0.943259       0.000085
     26 C                    -0.475600      -0.026583
     27 N                     0.353698       0.023803
     28 C                     1.510193      -0.002033
     29 H                    -0.523557       0.000258
     30 H                    -0.904841      -0.001392
     31 C                     1.546888       0.005953
     32 H                    -0.056552       0.000319
     33 H                    -0.568844       0.000093
     34 C                     1.086990       0.002502
     35 H                    -0.635745      -0.000147
     36 H                    -0.550007       0.000018
     37 C                     2.040570      -0.000236
     38 H                    -0.994045       0.001249
     39 H                    -0.765494      -0.000256
     40 C                     1.058496      -0.000020
     41 H                    -0.462358       0.000007
     42 H                    -0.562470       0.000015
     43 C                     0.762831      -0.000308
     44 H                    -0.637951      -0.000038
     45 C                     1.299356       0.000850
     46 H                    -0.473466       0.000021
     47 H                    -0.517159       0.000145
     48 C                     0.976121       0.000460
     49 H                    -0.594791       0.000952
     50 H                    -0.751353       0.000267
     51 C                     1.962042      -0.001807
     52 H                    -0.522500      -0.001115
     53 H                    -0.676217      -0.000150
     54 C                     0.413237       0.005385
     55 H                    -0.906636       0.002529
     56 H                    -0.596353       0.000002
     57 O                    -0.894260       0.000373
     58 O                    -0.870455      -0.000378
     59 O                    -0.944576       0.123718
     60 Fe                    3.013158       4.233572
     61 O                    -1.219178       0.146204
     62 O                    -0.749927       0.091740
     63 O                    -0.762214       0.099802
     64 O                    -0.882952       0.157100
     65 H                    -0.204247       0.000379
     66 H                    -0.424804       0.000333
  --------------------------------------------------------
  Sum of atomic charges =    -2.000000
  Sum of spin   charges =     5.000000

 -----------------------------------------------------------------
                    Cartesian Multipole Moments
 -----------------------------------------------------------------
    Charge (ESU x 10^10)
                -9.6064
    Dipole Moment (Debye)
         X       0.3421      Y      19.8382      Z     -14.5445
       Tot      24.6011
    Quadrupole Moments (Debye-Ang)
        XX    -398.6246     XY     -11.7304     YY    -265.7525
        XZ      28.9768     YZ      14.1860     ZZ    -295.7269
    Octopole Moments (Debye-Ang^2)
       XXX     289.6609    XXY     596.3421    XYY      22.0634
       YYY     239.3946    XXZ    -427.8440    XYZ     -99.1008
       YYZ      39.8190    XZZ     -22.2586    YZZ     128.1835
       ZZZ     145.0755
    Hexadecapole Moments (Debye-Ang^3)
      XXXX  -21866.9370   XXXY    -328.5285   XXYY   -4517.2108
      XYYY     351.1355   YYYY   -6143.6526   XXXZ    1640.3468
      XXYZ     682.0716   XYYZ     569.5954   YYYZ     441.1065
      XXZZ   -4498.5218   XYZZ     236.6907   YYZZ   -1781.7849
      XZZZ     602.0551   YZZZ     619.1050   ZZZZ   -3560.5267
 -----------------------------------------------------------------
 Total job time:  332309.30s(wall), 5942338.35s(cpu) 
 Sun Feb 25 04:28:32 2024

        *************************************************************
        *                                                           *
        *  Thank you very much for using Q-Chem.  Have a nice day.  *
        *                                                           *
        *************************************************************


