
Running Job 1 of 1 C_FeABO_ctL_3sextet_SfS_b3lypD3bj_ccpVDZ_pcmH2O_opt_2.in
qchem C_FeABO_ctL_3sextet_SfS_b3lypD3bj_ccpVDZ_pcmH2O_opt_2.in_1593023.0 /data/scratch/C_FeABO_ctL_3sextet_SfS_b3lypD3bj_ccpVDZ_pcmH2O_opt_220230807084432/ 0
/opt/qchem/6.0.1/exe/qcprog.exe_s C_FeABO_ctL_3sextet_SfS_b3lypD3bj_ccpVDZ_pcmH2O_opt_2.in_1593023.0 /data/scratch/C_FeABO_ctL_3sextet_SfS_b3lypD3bj_ccpVDZ_pcmH2O_opt_220230807084432/
                  Welcome to Q-Chem
     A Quantum Leap Into The Future Of Chemistry


 Q-Chem 6.0, Q-Chem, Inc., Pleasanton, CA (2022)

 E. Epifanovsky,  A. T. B. Gilbert,  Xintian Feng,  Joonho Lee,  Yuezhi Mao,  
 N. Mardirossian,  P. Pokhilko,  A. White,  M. Wormit,  M. P. Coons,  
 A. L. Dempwolff,  Zhengting Gan,  D. Hait,  P. R. Horn,  L. D. Jacobson,  
 I. Kaliman,  J. Kussmann,  A. W. Lange,  Ka Un Lao,  D. S. Levine,  Jie Liu,  
 S. C. McKenzie,  A. F. Morrison,  K. Nanda,  F. Plasser,  D. R. Rehn,  
 M. L. Vidal,  Zhi-Qiang You,  Ying Zhu,  B. Alam,  B. Albrecht,  
 A. Aldossary,  E. Alguire,  J. H. Andersen,  V. Athavale,  D. Barton,  
 K. Begam,  A. Behn,  N. Bellonzi,  Y. A. Bernard,  E. J. Berquist,  
 H. Burton,  A. Carreras,  K. Carter-Fenk,  Romit Chakraborty,  
 Chandrima Chakravarty,  Junhan Chen,  A. D. Chien,  K. D. Closser,  
 V. Cofer-Shabica,  L. Cunha,  S. Dasgupta,  Jia Deng,  M. de Wergifosse,  
 M. Diedenhofen,  Hainam Do,  S. Ehlert,  Po-Tung Fang,  S. Fatehi,  
 Qingguo Feng,  T. Friedhoff,  B. Ganoe,  J. Gayvert,  Qinghui Ge,  
 G. Gidofalvi,  M. Goldey,  J. Gomes,  C. Gonzalez-Espinoza,  S. Gulania,  
 A. Gunina,  J. A. Gyamfi,  M. W. D. Hanson-Heine,  P. H. P. Harbach,  
 A. W. Hauser,  M. F. Herbst,  M. Hernandez Vera,  M. Hodecker,  
 Z. C. Holden,  S. Houck,  Xunkun Huang,  Kerwin Hui,  B. C. Huynh,  
 K. Ikeda,  M. Ivanov,  Hyunjun Ji,  Zuxin Jin,  Hanjie Jiang,  B. Kaduk,  
 S. Kaehler,  R. Kang,  K. Khistyaev,  Jaehoon Kim,  Yongbin Kim,  
 P. Klunzinger,  Z. Koczor-Benda,  Joong Hoon Koh,  D. Kosenkov,  
 Saikiran Kotaru,  L. Koulias,  T. Kowalczyk,  C. M. Krauter,  K. Kue,  
 A. Kunitsa,  T. Kus,  A. Landau,  K. V. Lawler,  D. Lefrancois,  S. Lehtola,  
 Rain Li,  Shaozhi Li,  Yi-Pei Li,  Jiashu Liang,  M. Liebenthal,  
 Hung-Hsuan Lin,  You-Sheng Lin,  Fenglai Liu,  Kuan-Yu Liu,  
 M. Loipersberger,  A. Luenser,  C. Malbon,  A. Manjanath,  P. Manohar,  
 E. Mansoor,  S. F. Manzer,  Shan-Ping Mao,  A. V. Marenich,  T. Markovich,  
 S. Mason,  F. Matz,  S. A. Maurer,  P. F. McLaughlin,  M. F. S. J. Menger,  
 J.-M. Mewes,  S. A. Mewes,  P. Morgante,  Mohammad Mostafanejad,  
 J. W. Mullinax,  K. J. Oosterbaan,  G. Paran,  V. Parravicini,  
 Alexander C. Paul,  Suranjan K. Paul,  F. Pavosevic,  Zheng Pei,  S. Prager,  
 E. I. Proynov,  E. Ramos,  B. Rana,  A. E. Rask,  A. Rettig,  R. M. Richard,  
 F. Rob,  E. Rossomme,  T. Scheele,  M. Scheurer,  M. Schneider,  
 P. E. Schneider,  N. Sergueev,  S. M. Sharada,  Hengyuan Shen,  
 W. Skomorowski,  D. W. Small,  C. J. Stein,  Yingli Su,  Yu-Chuan Su,  
 E. J. Sundstrom,  Zhen Tao,  J. Thirman,  Hung-Yi Tsai,  T. Tsuchimochi,  
 N. M. Tubman,  C. Utku,  S. P. Veccham,  O. Vydrov,  J. Wenzel,  
 Jonathan Wong,  J. Witte,  A. Yamada,  Chou-Hsun Yang,  Kun Yao,  
 S. Yeganeh,  S. R. Yost,  A. Zech,  F. Zeller,  Igor Ying Zhang,  
 Xing Zhang,  Yu Zhang,  D. Zuev,  A. Aspuru-Guzik,  A. T. Bell,  
 N. A. Besley,  K. B. Bravaya,  B. R. Brooks,  D. Casanova,  Jeng-Da Chai,  
 Hsing-Ta Chen,  S. Coriani,  C. J. Cramer,  A. E. DePrince, III,  
 R. A. DiStasio Jr.,  A. Dreuw,  B. D. Dunietz,  T. R. Furlani,  
 W. A. Goddard III,  S. Grimme,  S. Hammes-Schiffer,  T. Head-Gordon,  
 W. J. Hehre,  Chao-Ping Hsu,  T.-C. Jagau,  Yousung Jung,  A. Klamt,  
 Jing Kong,  D. S. Lambrecht,  Xiangyuan Li,  WanZhen Liang,  N. J. Mayhall,  
 C. W. McCurdy,  J. B. Neaton,  T. Neudecker,  C. Ochsenfeld,  
 J. A. Parkhill,  R. Peverati,  V. A. Rassolov,  Haisheng Ren,  Yihan Shao,  
 L. V. Slipchenko,  R. P. Steele,  J. E. Subotnik,  A. J. W. Thom,  
 A. Tkatchenko,  D. G. Truhlar,  T. Van Voorhis,  Fan Wang,  
 T. A. Wesolowski,  K. B. Whaley,  H. L. Woodcock III,  P. M. Zimmerman,  
 S. Faraji,  P. M. W. Gill,  M. Head-Gordon,  J. M. Herbert,  A. I. Krylov

 Contributors to earlier versions of Q-Chem not listed above: 
 R. D. Adamson,  B. Austin,  R. Baer,  J. Baker,  G. J. O. Beran,  
 K. Brandhorst,  S. T. Brown,  E. F. C. Byrd,  Arup K. Chakraborty,  
 G. K. L. Chan,  Chun-Min Chang,  Yunqing Chen,  C.-L. Cheng,  
 Siu Hung Chien,  D. M. Chipman,  D. L. Crittenden,  H. Dachsel,  
 R. J. Doerksen,  A. D. Dutoi,  R. G. Edgar,  J. Fosso-Tande,  
 L. Fusti-Molnar,  D. Ghosh,  A. Ghysels,  A. Golubeva-Zadorozhnaya,  
 J. Gonthier,  M. S. Gordon,  S. R. Gwaltney,  G. Hawkins,  J. E. Herr,  
 A. Heyden,  S. Hirata,  E. G. Hohenstein,  G. Kedziora,  F. J. Keil,  
 C. Kelley,  Jihan Kim,  R. A. King,  R. Z. Khaliullin,  P. P. Korambath,  
 W. Kurlancheek,  A. Laurent,  A. M. Lee,  M. S. Lee,  S. V. Levchenko,  
 Ching Yeh Lin,  D. Liotard,  E. Livshits,  R. C. Lochan,  I. Lotan,  
 L. A. Martinez-Martinez,  P. E. Maslen,  N. Nair,  D. P. O'Neill,  
 D. Neuhauser,  E. Neuscamman,  C. M. Oana,  R. Olivares-Amaya,  R. Olson,  
 T. M. Perrine,  B. Peters,  P. A. Pieniazek,  A. Prociuk,  Y. M. Rhee,  
 J. Ritchie,  M. A. Rohrdanz,  E. Rosta,  N. J. Russ,  H. F. Schaefer III,  
 M. W. Schmidt,  N. E. Schultz,  S. Sharma,  N. Shenvi,  C. D. Sherrill,  
 A. C. Simmonett,  A. Sodt,  T. Stein,  D. Stuck,  K. S. Thanthiriwatte,  
 V. Vanovschi,  L. Vogt,  Tao Wang,  A. Warshel,  M. A. Watson,  
 C. F. Williams,  Q. Wu,  X. Xu,  Jun Yang,  W. Zhang,  Yan Zhao

   Please cite Q-Chem as follows:
  "Software for the frontiers of quantum chemistry:
   An overview of developments in the Q-Chem 5 package"
   J. Chem. Phys. 155, 084801 (2021)
   https://doi.org/10.1063/5.0055522 (open access)

 Q-Chem 6.0.2 for Intel X86 EM64T Linux

 Parts of Q-Chem use Armadillo 9.900.5 (Nocturnal Misbehaviour).
 http://arma.sourceforge.net/

 Q-Chem begins on Mon Aug  7 08:44:34 2023  

 Host: 
0

     Scratch files written to /data/scratch/C_FeABO_ctL_3sextet_SfS_b3lypD3bj_ccpVDZ_pcmH2O_opt_220230807084432//
 Dec722 |scratch|qcdevops|jenkins|workspace|build_RNUM 8907   
 Processing $rem in /opt/qchem/6.0.1/config/preferences:
 Processing $rem in /home/sgardner/.qchemrc:
 Symmetry turned off for PCM/SM12/SMD calculation

 Checking the input file for inconsistencies... 	...done.

--------------------------------------------------------------
User input:
--------------------------------------------------------------
$molecule
-3 6
N   -2.6830883    2.6381712    0.8156286
C   -4.0707009   -1.7641660   -0.7753331
H   -4.7911301   -2.3690807   -0.1957638
N   -2.7268845   -2.0544971   -0.3027485
H   -2.1216225   -2.3699657   -1.0605121
C   -4.1643748   -2.2065570   -2.2684891
O   -5.3004281   -2.1039260   -2.7968943
C   -2.3424054   -2.1428351    0.9847934
O   -3.0969542   -1.8622795    1.9333858
C   -1.8705119    3.6353139    1.1627351
C   -2.2977603    5.0671723    0.9765674
H   -3.2064936    5.2969827    1.5548216
H   -1.4833833    5.7191657    1.3155889
H   -2.5126629    5.2794853   -0.0822449
C   -0.9189472   -2.6245656    1.2091963
H   -0.5487106   -3.1729583    0.3336012
H   -0.9260578   -3.2902290    2.0840204
C    0.0834647   -1.4729655    1.4631420
C   -0.1412142   -0.8010216    2.8537853
C    1.5225506   -2.0450039    1.5914266
H    1.5082501   -2.8672170    2.3271383
H    2.1625746   -1.2585318    2.0204355
C    2.2057423   -2.5630668    0.3288499
O    1.6152424   -3.0879401   -0.6283935
N    3.5472622   -2.4298847    0.3735587
H    4.0141080   -2.0088146    1.1784138
C    5.9292776   -2.7502129   -0.0024924
O    6.8594830   -3.2581016   -0.6721448
N    1.8759051    2.1507626   -0.7109795
C    0.8039798    2.1626904   -1.5094600
C    0.9313145    2.3452437   -2.9964676
H    1.9522480    2.5402773   -3.3396041
H    0.5545596    1.4368463   -3.4937243
H    0.2811606    3.1806345   -3.2992157
C    3.2156175    1.7385055   -1.1500094
H    3.9138944    2.0827452   -0.3739932
H    3.4679664    2.2511560   -2.0873201
C    3.2341757    0.2174253   -1.2932187
H    2.8373930   -0.1844757   -0.3544266
H    2.5164561   -0.0643098   -2.0841784
C    4.5899591   -0.4101184   -1.6149703
H    5.0216290    0.0964256   -2.4969193
H    5.2945875   -0.2414877   -0.7814949
C    4.4770753   -1.9199189   -1.9027096
H    3.5506639   -2.1118869   -2.4696056
H    5.3221632   -2.2530250   -2.5246626
C    4.5056635   -2.8150718   -0.6463486
H    4.3206278   -3.8555819   -0.9621624
C   -4.0481478    2.1696432   -1.2265944
H   -3.4005117    2.8082049   -1.8520064
H   -5.0831159    2.3249614   -1.5820531
C   -4.0056848    2.7029224    0.2124204
H   -4.6810305    2.1213767    0.8605341
H   -4.3428784    3.7466708    0.2388580
C   -3.6541186    0.6967295   -1.4303900
H   -2.5910653    0.5663511   -1.1874548
H   -3.7760329    0.4715525   -2.5053597
C   -4.4883774   -0.2897134   -0.6134521
H   -4.4200366   -0.0411524    0.4546004
H   -5.5488004   -0.2236186   -0.9097547
O   -3.0987353   -2.6050410   -2.8169951
O    6.0177222   -2.1613337    1.1145761
O   -0.0074667   -0.5167932    0.4505614
Fe   -0.2481424    1.3021908    0.9833825
O   -0.0850316    0.4996285    2.8345841
O   -2.2243070    1.3792702    1.0429343
O   -0.7184365    3.3395866    1.6223092
O    1.6524956    1.9242623    0.6233334
O   -0.2706672   -1.4812508    3.8773778
O   -0.3564353    2.0369813   -0.9992587
$end

$rem
BASIS  =  gen
DFT_D  =  D3_BJ
GUI  =  2
JOB_TYPE  =  Optimization
METHOD  =  B3LYP
SCF_CONVERGENCE  =  8
SOLVENT_METHOD  =  PCM
$end

$pcm
THEORY  CPCM
$end

$solvent
DIELECTRIC  78.39
$end

$van_der_waals
26   2.44
$end

!----------------------------------------------------------------------
! Basis Set Exchange
! Basis set: cc-pVDZ
!----------------------------------------------------------------------

$rem
BASIS GEN
PURECART 11
$end

$basis
H     0
S   4   1.00
1.301000D+01           1.968500D-02
1.962000D+00           1.379770D-01
4.446000D-01           4.781480D-01
1.220000D-01           5.012400D-01
S   1   1.00
1.220000D-01           1.000000D+00
P   1   1.00
7.270000D-01           1.0000000
****
C     0
S   9   1.00
6.665000D+03           6.920000D-04
1.000000D+03           5.329000D-03
2.280000D+02           2.707700D-02
6.471000D+01           1.017180D-01
2.106000D+01           2.747400D-01
7.495000D+00           4.485640D-01
2.797000D+00           2.850740D-01
5.215000D-01           1.520400D-02
1.596000D-01          -3.191000D-03
S   9   1.00
6.665000D+03          -1.460000D-04
1.000000D+03          -1.154000D-03
2.280000D+02          -5.725000D-03
6.471000D+01          -2.331200D-02
2.106000D+01          -6.395500D-02
7.495000D+00          -1.499810D-01
2.797000D+00          -1.272620D-01
5.215000D-01           5.445290D-01
1.596000D-01           5.804960D-01
S   1   1.00
1.596000D-01           1.000000D+00
P   4   1.00
9.439000D+00           3.810900D-02
2.002000D+00           2.094800D-01
5.456000D-01           5.085570D-01
1.517000D-01           4.688420D-01
P   1   1.00
1.517000D-01           1.000000D+00
D   1   1.00
5.500000D-01           1.0000000
****
N     0
S   9   1.00
9.046000D+03           7.000000D-04
1.357000D+03           5.389000D-03
3.093000D+02           2.740600D-02
8.773000D+01           1.032070D-01
2.856000D+01           2.787230D-01
1.021000D+01           4.485400D-01
3.838000D+00           2.782380D-01
7.466000D-01           1.544000D-02
2.248000D-01          -2.864000D-03
S   9   1.00
9.046000D+03          -1.530000D-04
1.357000D+03          -1.208000D-03
3.093000D+02          -5.992000D-03
8.773000D+01          -2.454400D-02
2.856000D+01          -6.745900D-02
1.021000D+01          -1.580780D-01
3.838000D+00          -1.218310D-01
7.466000D-01           5.490030D-01
2.248000D-01           5.788150D-01
S   1   1.00
2.248000D-01           1.000000D+00
P   4   1.00
1.355000D+01           3.991900D-02
2.917000D+00           2.171690D-01
7.973000D-01           5.103190D-01
2.185000D-01           4.622140D-01
P   1   1.00
2.185000D-01           1.000000D+00
D   1   1.00
8.170000D-01           1.0000000
****
O     0
S   9   1.00
1.172000D+04           7.100000D-04
1.759000D+03           5.470000D-03
4.008000D+02           2.783700D-02
1.137000D+02           1.048000D-01
3.703000D+01           2.830620D-01
1.327000D+01           4.487190D-01
5.025000D+00           2.709520D-01
1.013000D+00           1.545800D-02
3.023000D-01          -2.585000D-03
S   9   1.00
1.172000D+04          -1.600000D-04
1.759000D+03          -1.263000D-03
4.008000D+02          -6.267000D-03
1.137000D+02          -2.571600D-02
3.703000D+01          -7.092400D-02
1.327000D+01          -1.654110D-01
5.025000D+00          -1.169550D-01
1.013000D+00           5.573680D-01
3.023000D-01           5.727590D-01
S   1   1.00
3.023000D-01           1.000000D+00
P   4   1.00
1.770000D+01           4.301800D-02
3.854000D+00           2.289130D-01
1.046000D+00           5.087280D-01
2.753000D-01           4.605310D-01
P   1   1.00
2.753000D-01           1.000000D+00
D   1   1.00
1.185000D+00           1.0000000
****
Fe     0
S   20   1.00
4.316265D+06           8.048803D-06
6.463424D+05           6.258306D-05
1.470897D+05           3.290239D-04
4.166152D+04           1.387355D-03
1.359077D+04           5.023256D-03
4.905750D+03           1.610140D-02
1.912746D+03           4.590034D-02
7.926043D+02           1.136154D-01
3.448065D+02           2.283869D-01
1.558999D+02           3.221159D-01
7.223091D+01           2.383661D-01
3.272506D+01           7.404667D-02
1.566762D+01           9.214197D-02
7.503483D+00           9.339790D-02
3.312223D+00           1.573965D-02
1.558471D+00          -4.186682D-04
6.839140D-01           5.376318D-05
1.467570D-01          -3.816654D-05
7.058300D-02           4.319603D-05
3.144900D-02          -3.401019D-06
S   20   1.00
4.316265D+06          -4.155954D-06
6.463424D+05          -3.231401D-05
1.470897D+05          -1.699525D-04
4.166152D+04          -7.171369D-04
1.359077D+04          -2.603625D-03
4.905750D+03          -8.399109D-03
1.912746D+03          -2.434109D-02
7.926043D+02          -6.251948D-02
3.448065D+02          -1.365929D-01
1.558999D+02          -2.312707D-01
7.223091D+01          -2.383734D-01
3.272506D+01           3.123837D-02
1.566762D+01           5.086818D-01
7.503483D+00           4.987695D-01
3.312223D+00           9.033552D-02
1.558471D+00          -6.005337D-03
6.839140D-01           2.312454D-04
1.467570D-01          -5.643680D-04
7.058300D-02           4.992260D-04
3.144900D-02          -1.015293D-04
S   20   1.00
4.316265D+06           9.532178D-07
6.463424D+05           7.414605D-06
1.470897D+05           3.898393D-05
4.166152D+04           1.647152D-04
1.359077D+04           5.985980D-04
4.905750D+03           1.942390D-03
1.912746D+03           5.687237D-03
7.926043D+02           1.501329D-02
3.448065D+02           3.452455D-02
1.558999D+02           6.495820D-02
7.223091D+01           7.716194D-02
3.272506D+01          -1.873411D-02
1.566762D+01          -3.009185D-01
7.503483D+00          -4.554661D-01
3.312223D+00           1.286463D-01
1.558471D+00           7.183316D-01
6.839140D-01           4.051743D-01
1.467570D-01           2.168227D-02
7.058300D-02          -8.343566D-03
3.144900D-02           3.658979D-03
S   20   1.00
4.316265D+06          -2.063008D-07
6.463424D+05          -1.604169D-06
1.470897D+05          -8.438437D-06
4.166152D+04          -3.563151D-05
1.359077D+04          -1.295998D-04
4.905750D+03          -4.201534D-04
1.912746D+03          -1.231954D-03
7.926043D+02          -3.248922D-03
3.448065D+02          -7.493717D-03
1.558999D+02          -1.410102D-02
7.223091D+01          -1.691600D-02
3.272506D+01           4.218996D-03
1.566762D+01           6.833810D-02
7.503483D+00           1.098201D-01
3.312223D+00          -4.009005D-02
1.558471D+00          -2.174739D-01
6.839140D-01          -2.465135D-01
1.467570D-01           2.731435D-01
7.058300D-02           5.748321D-01
3.144900D-02           3.012713D-01
S   20   1.00
4.316265D+06          -4.009367D-07
6.463424D+05          -3.189255D-06
1.470897D+05          -1.623079D-05
4.166152D+04          -7.157920D-05
1.359077D+04          -2.463958D-04
4.905750D+03          -8.544907D-04
1.912746D+03          -2.307593D-03
7.926043D+02          -6.728292D-03
3.448065D+02          -1.366165D-02
1.558999D+02          -3.062240D-02
7.223091D+01          -2.631137D-02
3.272506D+01          -9.760183D-03
1.566762D+01           1.801906D-01
7.503483D+00           1.529634D-01
3.312223D+00           5.505413D-02
1.558471D+00          -9.551364D-01
6.839140D-01           2.586813D-01
1.467570D-01           1.834049D+00
7.058300D-02          -9.333240D-01
3.144900D-02          -6.981605D-01
S   1   1.00
3.144900D-02           1.000000D+00
P   16   1.00
1.774569D+04           4.100000D-05
4.200721D+03           3.690000D-04
1.364429D+03           2.129000D-03
5.220806D+02           9.369000D-03
2.214595D+02           3.309700D-02
1.009096D+02           9.443100D-02
4.840115D+01           2.080770D-01
2.398536D+01           3.323330D-01
1.218250D+01           3.329870D-01
6.242298D+00           1.568430D-01
3.110944D+00           2.154900D-02
1.509958D+00          -2.095000D-03
7.108450D-01          -1.739000D-03
2.731900D-01          -3.000000D-04
1.042330D-01           2.900000D-05
3.829100D-02          -1.100000D-05
P   16   1.00
1.774569D+04          -1.500000D-05
4.200721D+03          -1.300000D-04
1.364429D+03          -7.510000D-04
5.220806D+02          -3.329000D-03
2.214595D+02          -1.191200D-02
1.009096D+02          -3.493300D-02
4.840115D+01          -7.998900D-02
2.398536D+01          -1.346360D-01
1.218250D+01          -1.385980D-01
6.242298D+00           3.027800D-02
3.110944D+00           3.332160D-01
1.509958D+00           4.561530D-01
7.108450D-01           2.850510D-01
2.731900D-01           4.614400D-02
1.042330D-01          -3.249000D-03
3.829100D-02           1.357000D-03
P   16   1.00
1.774569D+04           5.000000D-06
4.200721D+03           4.200000D-05
1.364429D+03           2.410000D-04
5.220806D+02           1.085000D-03
2.214595D+02           3.831000D-03
1.009096D+02           1.142300D-02
4.840115D+01           2.579200D-02
2.398536D+01           4.481800D-02
1.218250D+01           4.459800D-02
6.242298D+00          -1.117700D-02
3.110944D+00          -1.381340D-01
1.509958D+00          -1.882850D-01
7.108450D-01          -1.073990D-01
2.731900D-01           4.448630D-01
1.042330D-01           6.402390D-01
3.829100D-02           6.445700D-02
P   16   1.00
1.774569D+04           3.000000D-06
4.200721D+03           2.900000D-05
1.364429D+03           1.650000D-04
5.220806D+02           7.340000D-04
2.214595D+02           2.626000D-03
1.009096D+02           7.725000D-03
4.840115D+01           1.773300D-02
2.398536D+01           3.005500D-02
1.218250D+01           3.109400D-02
6.242298D+00          -1.004800D-02
3.110944D+00          -8.830600D-02
1.509958D+00          -1.298240D-01
7.108450D-01          -7.693700D-02
2.731900D-01           2.126610D-01
1.042330D-01           5.730610D-01
3.829100D-02           3.696510D-01
P   1   1.00
3.829100D-02           1.000000D+00
D   8   1.00
1.133440D+02           3.530000D-03
3.364140D+01           2.578400D-02
1.233100D+01           9.911900D-02
4.994780D+00           2.390730D-01
2.072800D+00           3.571990D-01
8.307530D-01           3.621880D-01
3.091780D-01           2.364610D-01
1.001300D-01           6.011800D-02
D   8   1.00
1.133440D+02          -3.890000D-03
3.364140D+01          -2.844200D-02
1.233100D+01          -1.124290D-01
4.994780D+00          -2.742570D-01
2.072800D+00          -3.155460D-01
8.307530D-01           5.710900D-02
3.091780D-01           5.636040D-01
1.001300D-01           3.846370D-01
D   1   1.00
1.001300D-01           1.000000D+00
F   2   1.00
3.224300D+00           4.222490D-01
7.758000D-01           7.714680D-01
****
$end


--------------------------------------------------------------
 Adding empirical dispersion correction 
 ----------------------------------------------------------------
 Doing -D3(BJ) with
 s6  =   1.00000
 s8  =   1.98890
 a1  =   0.39810
 a2  =   4.42110
 -D3 energy without 3body term =     -0.1702006713 hartrees
 ----------------------------------------------------------------
             Standard Nuclear Orientation (Angstroms)
    I     Atom           X                Y                Z
 ----------------------------------------------------------------
    1      N      -2.6830883000     2.6381712000     0.8156286000
    2      C      -4.0707009000    -1.7641660000    -0.7753331000
    3      H      -4.7911301000    -2.3690807000    -0.1957638000
    4      N      -2.7268845000    -2.0544971000    -0.3027485000
    5      H      -2.1216225000    -2.3699657000    -1.0605121000
    6      C      -4.1643748000    -2.2065570000    -2.2684891000
    7      O      -5.3004281000    -2.1039260000    -2.7968943000
    8      C      -2.3424054000    -2.1428351000     0.9847934000
    9      O      -3.0969542000    -1.8622795000     1.9333858000
   10      C      -1.8705119000     3.6353139000     1.1627351000
   11      C      -2.2977603000     5.0671723000     0.9765674000
   12      H      -3.2064936000     5.2969827000     1.5548216000
   13      H      -1.4833833000     5.7191657000     1.3155889000
   14      H      -2.5126629000     5.2794853000    -0.0822449000
   15      C      -0.9189472000    -2.6245656000     1.2091963000
   16      H      -0.5487106000    -3.1729583000     0.3336012000
   17      H      -0.9260578000    -3.2902290000     2.0840204000
   18      C       0.0834647000    -1.4729655000     1.4631420000
   19      C      -0.1412142000    -0.8010216000     2.8537853000
   20      C       1.5225506000    -2.0450039000     1.5914266000
   21      H       1.5082501000    -2.8672170000     2.3271383000
   22      H       2.1625746000    -1.2585318000     2.0204355000
   23      C       2.2057423000    -2.5630668000     0.3288499000
   24      O       1.6152424000    -3.0879401000    -0.6283935000
   25      N       3.5472622000    -2.4298847000     0.3735587000
   26      H       4.0141080000    -2.0088146000     1.1784138000
   27      C       5.9292776000    -2.7502129000    -0.0024924000
   28      O       6.8594830000    -3.2581016000    -0.6721448000
   29      N       1.8759051000     2.1507626000    -0.7109795000
   30      C       0.8039798000     2.1626904000    -1.5094600000
   31      C       0.9313145000     2.3452437000    -2.9964676000
   32      H       1.9522480000     2.5402773000    -3.3396041000
   33      H       0.5545596000     1.4368463000    -3.4937243000
   34      H       0.2811606000     3.1806345000    -3.2992157000
   35      C       3.2156175000     1.7385055000    -1.1500094000
   36      H       3.9138944000     2.0827452000    -0.3739932000
   37      H       3.4679664000     2.2511560000    -2.0873201000
   38      C       3.2341757000     0.2174253000    -1.2932187000
   39      H       2.8373930000    -0.1844757000    -0.3544266000
   40      H       2.5164561000    -0.0643098000    -2.0841784000
   41      C       4.5899591000    -0.4101184000    -1.6149703000
   42      H       5.0216290000     0.0964256000    -2.4969193000
   43      H       5.2945875000    -0.2414877000    -0.7814949000
   44      C       4.4770753000    -1.9199189000    -1.9027096000
   45      H       3.5506639000    -2.1118869000    -2.4696056000
   46      H       5.3221632000    -2.2530250000    -2.5246626000
   47      C       4.5056635000    -2.8150718000    -0.6463486000
   48      H       4.3206278000    -3.8555819000    -0.9621624000
   49      C      -4.0481478000     2.1696432000    -1.2265944000
   50      H      -3.4005117000     2.8082049000    -1.8520064000
   51      H      -5.0831159000     2.3249614000    -1.5820531000
   52      C      -4.0056848000     2.7029224000     0.2124204000
   53      H      -4.6810305000     2.1213767000     0.8605341000
   54      H      -4.3428784000     3.7466708000     0.2388580000
   55      C      -3.6541186000     0.6967295000    -1.4303900000
   56      H      -2.5910653000     0.5663511000    -1.1874548000
   57      H      -3.7760329000     0.4715525000    -2.5053597000
   58      C      -4.4883774000    -0.2897134000    -0.6134521000
   59      H      -4.4200366000    -0.0411524000     0.4546004000
   60      H      -5.5488004000    -0.2236186000    -0.9097547000
   61      O      -3.0987353000    -2.6050410000    -2.8169951000
   62      O       6.0177222000    -2.1613337000     1.1145761000
   63      O      -0.0074667000    -0.5167932000     0.4505614000
   64      Fe     -0.2481424000     1.3021908000     0.9833825000
   65      O      -0.0850316000     0.4996285000     2.8345841000
   66      O      -2.2243070000     1.3792702000     1.0429343000
   67      O      -0.7184365000     3.3395866000     1.6223092000
   68      O       1.6524956000     1.9242623000     0.6233334000
   69      O      -0.2706672000    -1.4812508000     3.8773778000
   70      O      -0.3564353000     2.0369813000    -0.9992587000
 ----------------------------------------------------------------
 Nuclear Repulsion Energy =        6064.09889262 hartrees
 There are      164 alpha and      159 beta electrons
 Requested basis set is non-standard
 There are 339 shells and 739 basis functions

 Total QAlloc Memory Limit   8000 MB
 Mega-Array Size       188 MB
 MEM_STATIC part       192 MB

 -----------------------------------------------------------------------
                STARTING GEOMETRY OPTIMIZER USING LIBOPT3
                by Peter F. McLaughlin, Yu Zhang, Evgeny Epifanovsky
 -----------------------------------------------------------------------

              Initial Energy and Gradient Calculation
   -- Checking Topology for Ill-Behaving Coordinates --

 -------------------------------------------
   Coordinate       |  Removed | Additions 
 -------------------------------------------
	Bonds                     0          0
	Angles                    2          0
	Torsions                  4          4
	Co-Linear Type5s          0          4
	Co-Linear Type6s          0          4
 -------------------------------------------

 ** Ill-Behaving Topology Definitions (No action needed.) **

  Ill-Defined Angles Removed: 
  63  64  67,  65  64  70

  Ill-Defined Torsions Removed: 
  18  63  64  67,  19  65  64  70,  63  64  67  10,  65  64  70  30

     Done Checking Topology
 Adding empirical dispersion correction 
 ----------------------------------------------------------------
 Doing -D3(BJ) with
 s6  =   1.00000
 s8  =   1.98890
 a1  =   0.39810
 a2  =   4.42110
 -D3 energy without 3body term =     -0.1702006713 hartrees
 ----------------------------------------------------------------
             Standard Nuclear Orientation (Angstroms)
    I     Atom           X                Y                Z
 ----------------------------------------------------------------
    1      N      -2.6830883000     2.6381712000     0.8156286000
    2      C      -4.0707009000    -1.7641660000    -0.7753331000
    3      H      -4.7911301000    -2.3690807000    -0.1957638000
    4      N      -2.7268845000    -2.0544971000    -0.3027485000
    5      H      -2.1216225000    -2.3699657000    -1.0605121000
    6      C      -4.1643748000    -2.2065570000    -2.2684891000
    7      O      -5.3004281000    -2.1039260000    -2.7968943000
    8      C      -2.3424054000    -2.1428351000     0.9847934000
    9      O      -3.0969542000    -1.8622795000     1.9333858000
   10      C      -1.8705119000     3.6353139000     1.1627351000
   11      C      -2.2977603000     5.0671723000     0.9765674000
   12      H      -3.2064936000     5.2969827000     1.5548216000
   13      H      -1.4833833000     5.7191657000     1.3155889000
   14      H      -2.5126629000     5.2794853000    -0.0822449000
   15      C      -0.9189472000    -2.6245656000     1.2091963000
   16      H      -0.5487106000    -3.1729583000     0.3336012000
   17      H      -0.9260578000    -3.2902290000     2.0840204000
   18      C       0.0834647000    -1.4729655000     1.4631420000
   19      C      -0.1412142000    -0.8010216000     2.8537853000
   20      C       1.5225506000    -2.0450039000     1.5914266000
   21      H       1.5082501000    -2.8672170000     2.3271383000
   22      H       2.1625746000    -1.2585318000     2.0204355000
   23      C       2.2057423000    -2.5630668000     0.3288499000
   24      O       1.6152424000    -3.0879401000    -0.6283935000
   25      N       3.5472622000    -2.4298847000     0.3735587000
   26      H       4.0141080000    -2.0088146000     1.1784138000
   27      C       5.9292776000    -2.7502129000    -0.0024924000
   28      O       6.8594830000    -3.2581016000    -0.6721448000
   29      N       1.8759051000     2.1507626000    -0.7109795000
   30      C       0.8039798000     2.1626904000    -1.5094600000
   31      C       0.9313145000     2.3452437000    -2.9964676000
   32      H       1.9522480000     2.5402773000    -3.3396041000
   33      H       0.5545596000     1.4368463000    -3.4937243000
   34      H       0.2811606000     3.1806345000    -3.2992157000
   35      C       3.2156175000     1.7385055000    -1.1500094000
   36      H       3.9138944000     2.0827452000    -0.3739932000
   37      H       3.4679664000     2.2511560000    -2.0873201000
   38      C       3.2341757000     0.2174253000    -1.2932187000
   39      H       2.8373930000    -0.1844757000    -0.3544266000
   40      H       2.5164561000    -0.0643098000    -2.0841784000
   41      C       4.5899591000    -0.4101184000    -1.6149703000
   42      H       5.0216290000     0.0964256000    -2.4969193000
   43      H       5.2945875000    -0.2414877000    -0.7814949000
   44      C       4.4770753000    -1.9199189000    -1.9027096000
   45      H       3.5506639000    -2.1118869000    -2.4696056000
   46      H       5.3221632000    -2.2530250000    -2.5246626000
   47      C       4.5056635000    -2.8150718000    -0.6463486000
   48      H       4.3206278000    -3.8555819000    -0.9621624000
   49      C      -4.0481478000     2.1696432000    -1.2265944000
   50      H      -3.4005117000     2.8082049000    -1.8520064000
   51      H      -5.0831159000     2.3249614000    -1.5820531000
   52      C      -4.0056848000     2.7029224000     0.2124204000
   53      H      -4.6810305000     2.1213767000     0.8605341000
   54      H      -4.3428784000     3.7466708000     0.2388580000
   55      C      -3.6541186000     0.6967295000    -1.4303900000
   56      H      -2.5910653000     0.5663511000    -1.1874548000
   57      H      -3.7760329000     0.4715525000    -2.5053597000
   58      C      -4.4883774000    -0.2897134000    -0.6134521000
   59      H      -4.4200366000    -0.0411524000     0.4546004000
   60      H      -5.5488004000    -0.2236186000    -0.9097547000
   61      O      -3.0987353000    -2.6050410000    -2.8169951000
   62      O       6.0177222000    -2.1613337000     1.1145761000
   63      O      -0.0074667000    -0.5167932000     0.4505614000
   64      Fe     -0.2481424000     1.3021908000     0.9833825000
   65      O      -0.0850316000     0.4996285000     2.8345841000
   66      O      -2.2243070000     1.3792702000     1.0429343000
   67      O      -0.7184365000     3.3395866000     1.6223092000
   68      O       1.6524956000     1.9242623000     0.6233334000
   69      O      -0.2706672000    -1.4812508000     3.8773778000
   70      O      -0.3564353000     2.0369813000    -0.9992587000
 ----------------------------------------------------------------
 Nuclear Repulsion Energy =        6064.09889262 hartrees
 There are      164 alpha and      159 beta electrons
 Using C-PCM dielectric factor f(eps) = (eps-1)/eps = 0.987243
No default van der Waals radius is available for Z = 26
	Found R = 2.4400 A in the $van_der_waals section
 Discretize the solute cavity surface with Lebedev spheres
	Using 110 Lebedev grid points for each H atom
	Using 194 Lebedev grid points for other atoms
	Atomic van der Waals radii (Bondi set) will be scaled by 1.20
 Using smooth SwiG surface discretization
 Remove points where switching function is < 1.0e-08
 Keep 4111 surface tesserae and discard 6949 interior tesserae
 Molecular Surface Area = 531.369 Angst**2

 Requested basis set is non-standard
 There are 339 shells and 739 basis functions
 A cutoff of  1.0D-12 yielded  45701 shell pairs
 There are    199069 function pairs (    220818 Cartesian)
 Smallest overlap matrix eigenvalue = 2.92E-04

 Scale SEOQF with 1.000000e-02/1.000000e-02/1.000000e-01

 Standard Electronic Orientation quadrupole field applied
 Nucleus-field energy     =    -0.0000000653 hartrees
 ================ Generating on-the-fly SAD Guess ================
 Attempting to make child job directory: /data/scratch/C_FeABO_ctL_3sextet_SfS_b3lypD3bj_ccpVDZ_pcmH2O_opt_220230807084432//Frg1/
 Attempting to make child job directory: /data/scratch/C_FeABO_ctL_3sextet_SfS_b3lypD3bj_ccpVDZ_pcmH2O_opt_220230807084432//Frg2/
 Attempting to make child job directory: /data/scratch/C_FeABO_ctL_3sextet_SfS_b3lypD3bj_ccpVDZ_pcmH2O_opt_220230807084432//Frg3/
 Attempting to make child job directory: /data/scratch/C_FeABO_ctL_3sextet_SfS_b3lypD3bj_ccpVDZ_pcmH2O_opt_220230807084432//Frg4/
 Attempting to make child job directory: /data/scratch/C_FeABO_ctL_3sextet_SfS_b3lypD3bj_ccpVDZ_pcmH2O_opt_220230807084432//Frg5/
 Creating input file /data/scratch/C_FeABO_ctL_3sextet_SfS_b3lypD3bj_ccpVDZ_pcmH2O_opt_220230807084432/Frg1.input
 using default PutDataFrgm: nothing
 calling putenv with: QCSCRATCH=/data/scratch/C_FeABO_ctL_3sextet_SfS_b3lypD3bj_ccpVDZ_pcmH2O_opt_220230807084432/ 
 Spawning Job For Fragment 0
 Done Job For Fragment 0
 calling putenv with: QCSCRATCH=/data/scratch 
 calling putenv with: QCTHREADS=20 
 Creating input file /data/scratch/C_FeABO_ctL_3sextet_SfS_b3lypD3bj_ccpVDZ_pcmH2O_opt_220230807084432/Frg2.input
 using default PutDataFrgm: nothing
 calling putenv with: QCSCRATCH=/data/scratch/C_FeABO_ctL_3sextet_SfS_b3lypD3bj_ccpVDZ_pcmH2O_opt_220230807084432/ 
 Spawning Job For Fragment 1
 Done Job For Fragment 1
 calling putenv with: QCSCRATCH=/data/scratch 
 calling putenv with: QCTHREADS=20 
 Creating input file /data/scratch/C_FeABO_ctL_3sextet_SfS_b3lypD3bj_ccpVDZ_pcmH2O_opt_220230807084432/Frg3.input
 using default PutDataFrgm: nothing
 calling putenv with: QCSCRATCH=/data/scratch/C_FeABO_ctL_3sextet_SfS_b3lypD3bj_ccpVDZ_pcmH2O_opt_220230807084432/ 
 Spawning Job For Fragment 2
 Done Job For Fragment 2
 calling putenv with: QCSCRATCH=/data/scratch 
 calling putenv with: QCTHREADS=20 
 Creating input file /data/scratch/C_FeABO_ctL_3sextet_SfS_b3lypD3bj_ccpVDZ_pcmH2O_opt_220230807084432/Frg4.input
 using default PutDataFrgm: nothing
 calling putenv with: QCSCRATCH=/data/scratch/C_FeABO_ctL_3sextet_SfS_b3lypD3bj_ccpVDZ_pcmH2O_opt_220230807084432/ 
 Spawning Job For Fragment 3
 Done Job For Fragment 3
 calling putenv with: QCSCRATCH=/data/scratch 
 calling putenv with: QCTHREADS=20 
 Creating input file /data/scratch/C_FeABO_ctL_3sextet_SfS_b3lypD3bj_ccpVDZ_pcmH2O_opt_220230807084432/Frg5.input
 using default PutDataFrgm: nothing
 calling putenv with: QCSCRATCH=/data/scratch/C_FeABO_ctL_3sextet_SfS_b3lypD3bj_ccpVDZ_pcmH2O_opt_220230807084432/ 
 Spawning Job For Fragment 4
 Done Job For Fragment 4
 calling putenv with: QCSCRATCH=/data/scratch 
 calling putenv with: QCTHREADS=20 
 Time for running child jobs:  CPU 0.02 s  wall 68.65 s
 ============= Method Specific SAD Guess Constructed =============
 Guess from on-the-fly superposition of atomic densities
 Warning: Energy on first SCF cycle will be non-variational

 -----------------------------------------------------------------------
  General SCF calculation program by
  Eric Jon Sundstrom, Paul Horn, Yuezhi Mao, Dmitri Zuev, Alec White,
  David Stuck, Shaama M.S., Shane Yost, Joonho Lee, David Small,
  Daniel Levine, Susi Lehtola, Hugh Burton, Evgeny Epifanovsky,
  Bang C. Huynh
 -----------------------------------------------------------------------
 Exchange:     0.2000 Hartree-Fock + 0.0800 Slater + 0.7200 B88
 Correlation:  0.1900 VWN1RPA + 0.8100 LYP
 Using SG-1 standard quadrature grid
 Dispersion:   Grimme D3
 using 20 threads for integral computing
 -------------------------------------------------------
 OpenMP Integral computing Module                
 Release: version 1.0, May 2013, Q-Chem Inc. Pittsburgh 
 -------------------------------------------------------
 C-PCM solvent model [f = (eps-1)/eps], solve by matrix inversion
 A unrestricted SCF calculation will be
 performed using DIIS
 SCF converges when DIIS error is below 1.0e-08
 ---------------------------------------
  Cycle       Energy         DIIS error
 ---------------------------------------
    1   -3332.2030593863      1.59e-02  
    2   -3316.7777705146      2.21e-03  
    3   -3314.2532374302      4.49e-03  
    4   -3317.1693562400      2.09e-03  
    5   -3317.9733970025      2.66e-04  
    6   -3317.9692195936      3.45e-04  
    7   -3317.9950832350      7.79e-05  
    8   -3317.9962901021      4.74e-05  
    9   -3317.9968639293      1.90e-05  
   10   -3317.9969703675      7.13e-06  
   11   -3317.9969893366      3.97e-06  
   12   -3317.9969956633      2.03e-06  
   13   -3317.9969977799      1.00e-06  
   14   -3317.9969982944      6.47e-07  
   15   -3317.9969984681      2.75e-07  
   16   -3317.9969985019      1.59e-07  
   17   -3317.9969985123      8.55e-08  
   18   -3317.9969985142      3.16e-08  
   19   -3317.9969985144      1.46e-08  
   20   -3317.9969985145      6.89e-09  Convergence criterion met
 ---------------------------------------
 SCF time:   CPU 26723.91s  wall 2192.00s 
<S^2> =          8.758067748

************** Final PCM Free Energy Summary **************
 G_electrostatic  =      -0.52643449 hartree =    -330.34262716 kcal/mol
 G_cavitation     =       0.00000000 hartree =       0.00000000 kcal/mol
 G_dispersion     =       0.00000000 hartree =       0.00000000 kcal/mol
 G_repulsion      =       0.00000000 hartree =       0.00000000 kcal/mol
 --------------------------------------------------
 Non-electrostatic Free Energy =       0.00000000 hartree =       0.00000000 kcal/mol
 Total                         =      -0.52643449 hartree =    -330.34262716 kcal/mol
 --------------------------------------------------
 SCF Energy (H0 + V/2)                       =   -3317.99699851 
 Solute Internal Energy (H0)                 =   -3317.47056403 
 Total Free Energy (H0 + V/2 + non-elec)     =   -3317.99699851 hartree
                                             = -2082074.54131741 kcal/mol
***********************************************************

 SCF   energy in the final basis set =    -3317.9969985145
 Total energy in the final basis set =    -3317.9969985145
 
 --------------------------------------------------------------
 
                    Orbital Energies (a.u.)
 --------------------------------------------------------------
 
 Alpha MOs
 -- Occupied --
******** -30.1209 -25.9749 -25.9721 -25.9711 -19.1217 -19.1168 -19.1154
-19.1148 -19.1055 -19.0920 -19.0847 -19.0824 -19.0799 -19.0606 -19.0570
-19.0540 -19.0496 -14.4003 -14.3976 -14.3245 -14.3192 -10.2803 -10.2770
-10.2696 -10.2671 -10.2596 -10.2466 -10.2429 -10.2218 -10.2155 -10.2147
-10.1968 -10.1917 -10.1893 -10.1886 -10.1759 -10.1751 -10.1717 -10.1693
-10.1686 -10.1636 -10.1589 -10.1588  -3.6033  -2.3811  -2.3760  -2.3738
 -1.0744  -1.0688  -1.0343  -1.0144  -1.0053  -1.0020  -0.9994  -0.9980
 -0.9948  -0.9568  -0.9404  -0.9154  -0.9103  -0.8961  -0.8888  -0.8452
 -0.8425  -0.7872  -0.7841  -0.7625  -0.7478  -0.7392  -0.7227  -0.7163
 -0.7031  -0.6816  -0.6703  -0.6319  -0.6212  -0.5994  -0.5789  -0.5777
 -0.5451  -0.5445  -0.5378  -0.5277  -0.5192  -0.5113  -0.5063  -0.4996
 -0.4948  -0.4890  -0.4825  -0.4790  -0.4684  -0.4655  -0.4603  -0.4554
 -0.4531  -0.4484  -0.4442  -0.4422  -0.4358  -0.4318  -0.4261  -0.4256
 -0.4231  -0.4185  -0.4131  -0.4117  -0.4054  -0.4041  -0.4022  -0.4000
 -0.3978  -0.3949  -0.3939  -0.3920  -0.3912  -0.3845  -0.3821  -0.3781
 -0.3756  -0.3744  -0.3731  -0.3681  -0.3657  -0.3651  -0.3617  -0.3591
 -0.3566  -0.3513  -0.3484  -0.3427  -0.3399  -0.3370  -0.3315  -0.3275
 -0.3220  -0.3202  -0.3137  -0.3118  -0.3107  -0.3053  -0.3008  -0.2954
 -0.2809  -0.2774  -0.2739  -0.2572  -0.2477  -0.2408  -0.2382  -0.2349
 -0.2309  -0.2279  -0.2247  -0.2227  -0.2191  -0.2158  -0.2128  -0.2074
 -0.2062  -0.2024  -0.1963  -0.1922
 -- Virtual --
  0.0150   0.0234   0.0306   0.0386   0.0411   0.0533   0.0566   0.0689
  0.0740   0.0792   0.0852   0.0874   0.0887   0.0975   0.1024   0.1076
  0.1096   0.1108   0.1174   0.1190   0.1238   0.1276   0.1316   0.1347
  0.1380   0.1425   0.1495   0.1505   0.1573   0.1598   0.1654   0.1667
  0.1695   0.1746   0.1795   0.1831   0.1844   0.1855   0.1907   0.1969
  0.2011   0.2022   0.2109   0.2158   0.2180   0.2225   0.2233   0.2292
  0.2342   0.2388   0.2444   0.2480   0.2536   0.2548   0.2599   0.2626
  0.2692   0.2717   0.2743   0.2804   0.2839   0.2877   0.2932   0.2976
  0.3013   0.3179   0.3208   0.3300   0.3386   0.3443   0.3557   0.3582
  0.3598   0.3668   0.3777   0.3851   0.3902   0.3949   0.3971   0.4120
  0.4129   0.4154   0.4239   0.4280   0.4330   0.4332   0.4403   0.4503
  0.4548   0.4566   0.4623   0.4674   0.4740   0.4796   0.4811   0.4867
  0.4927   0.4959   0.5053   0.5095   0.5175   0.5187   0.5260   0.5300
  0.5347   0.5419   0.5440   0.5456   0.5526   0.5561   0.5603   0.5621
  0.5692   0.5715   0.5733   0.5758   0.5823   0.5853   0.5891   0.5923
  0.5951   0.6021   0.6070   0.6122   0.6166   0.6175   0.6209   0.6238
  0.6275   0.6311   0.6333   0.6360   0.6379   0.6432   0.6446   0.6488
  0.6510   0.6524   0.6576   0.6593   0.6638   0.6660   0.6697   0.6732
  0.6735   0.6799   0.6836   0.6850   0.6866   0.6901   0.6915   0.6941
  0.6968   0.6992   0.7021   0.7059   0.7091   0.7120   0.7157   0.7189
  0.7232   0.7284   0.7325   0.7375   0.7409   0.7421   0.7467   0.7498
  0.7548   0.7557   0.7679   0.7722   0.7754   0.7804   0.7877   0.7914
  0.7976   0.8027   0.8116   0.8213   0.8222   0.8332   0.8394   0.8497
  0.8580   0.8610   0.8661   0.8729   0.8761   0.8828   0.8891   0.8949
  0.9083   0.9122   0.9160   0.9255   0.9322   0.9377   0.9508   0.9533
  0.9649   0.9898   0.9948   0.9969   1.0079   1.0139   1.0160   1.0238
  1.0283   1.0371   1.0461   1.0492   1.0532   1.0567   1.0631   1.0706
  1.0752   1.0824   1.0952   1.0971   1.0981   1.1051   1.1144   1.1171
  1.1222   1.1255   1.1318   1.1331   1.1346   1.1362   1.1450   1.1510
  1.1541   1.1606   1.1660   1.1684   1.1742   1.1824   1.1849   1.1891
  1.1931   1.1976   1.1996   1.2146   1.2157   1.2203   1.2265   1.2324
  1.2394   1.2449   1.2463   1.2584   1.2614   1.2672   1.2691   1.2728
  1.2808   1.2839   1.2893   1.2919   1.3010   1.3085   1.3117   1.3178
  1.3291   1.3339   1.3389   1.3454   1.3488   1.3501   1.3592   1.3677
  1.3701   1.3720   1.3851   1.3918   1.3976   1.4061   1.4115   1.4157
  1.4212   1.4276   1.4349   1.4367   1.4381   1.4458   1.4500   1.4607
  1.4777   1.4850   1.4912   1.4979   1.5078   1.5124   1.5197   1.5250
  1.5269   1.5332   1.5393   1.5409   1.5581   1.5621   1.5642   1.5766
  1.5795   1.5822   1.5894   1.5925   1.6013   1.6022   1.6055   1.6097
  1.6191   1.6203   1.6281   1.6354   1.6370   1.6376   1.6439   1.6451
  1.6514   1.6554   1.6591   1.6617   1.6654   1.6665   1.6734   1.6745
  1.6802   1.6847   1.6866   1.6901   1.6932   1.6996   1.7017   1.7041
  1.7086   1.7103   1.7139   1.7191   1.7247   1.7293   1.7322   1.7390
  1.7409   1.7458   1.7491   1.7589   1.7613   1.7628   1.7656   1.7765
  1.7795   1.7847   1.7869   1.7879   1.7898   1.7966   1.8070   1.8121
  1.8168   1.8172   1.8204   1.8244   1.8291   1.8313   1.8361   1.8399
  1.8467   1.8501   1.8547   1.8591   1.8627   1.8712   1.8737   1.8755
  1.8875   1.8893   1.8933   1.9009   1.9023   1.9104   1.9177   1.9218
  1.9225   1.9343   1.9369   1.9481   1.9543   1.9571   1.9641   1.9699
  1.9728   1.9849   1.9880   1.9960   2.0089   2.0127   2.0169   2.0271
  2.0312   2.0360   2.0465   2.0499   2.0585   2.0652   2.0683   2.0730
  2.0865   2.0951   2.0991   2.1117   2.1167   2.1218   2.1236   2.1370
  2.1431   2.1479   2.1520   2.1600   2.1661   2.1695   2.1740   2.1790
  2.1832   2.1912   2.1963   2.2012   2.2083   2.2185   2.2277   2.2348
  2.2368   2.2388   2.2568   2.2630   2.2674   2.2715   2.2732   2.2833
  2.2929   2.2991   2.3053   2.3078   2.3138   2.3230   2.3246   2.3289
  2.3394   2.3453   2.3504   2.3543   2.3602   2.3743   2.3800   2.3883
  2.3938   2.3988   2.4049   2.4074   2.4208   2.4229   2.4328   2.4422
  2.4484   2.4552   2.4608   2.4668   2.4748   2.4874   2.4901   2.4946
  2.5039   2.5101   2.5150   2.5313   2.5330   2.5359   2.5417   2.5565
  2.5639   2.5685   2.5801   2.5963   2.6046   2.6077   2.6142   2.6202
  2.6402   2.6466   2.6590   2.6703   2.6778   2.6779   2.6807   2.6920
  2.6997   2.7035   2.7123   2.7211   2.7218   2.7276   2.7292   2.7305
  2.7368   2.7401   2.7421   2.7570   2.7600   2.7635   2.7691   2.7693
  2.7746   2.7807   2.7851   2.7932   2.8085   2.8184   2.8340   2.8437
  2.8530   2.8839   2.9005   2.9154   2.9185   2.9271   2.9428   2.9664
  2.9701   2.9813   2.9957   3.0081   3.0157   3.0305   3.0356   3.0576
  3.0737   3.0960   3.1005   3.1056   3.1149   3.1181   3.1295   3.1330
  3.1553   3.2029   3.2114   3.2159   3.2248   3.2481   3.2515   3.2821
  3.3901   3.4016   3.4070   3.4083   3.4139   3.4214   3.4398   3.4452
  3.4589   3.4709   3.4857   3.5064   3.5139   3.5173   3.5233   3.5354
  3.5468   3.5733   3.5835   3.6024   3.6356   3.7273   3.7627
 
 Beta MOs
 -- Occupied --
******** -30.0282 -25.8968 -25.8951 -25.8945 -19.1190 -19.1132 -19.1116
-19.1107 -19.1021 -19.0920 -19.0842 -19.0824 -19.0730 -19.0606 -19.0570
-19.0540 -19.0496 -14.4001 -14.3974 -14.3245 -14.3192 -10.2803 -10.2769
-10.2696 -10.2670 -10.2596 -10.2466 -10.2429 -10.2217 -10.2154 -10.2146
-10.1968 -10.1917 -10.1892 -10.1885 -10.1759 -10.1750 -10.1717 -10.1693
-10.1686 -10.1635 -10.1589 -10.1588  -3.3875  -2.1519  -2.1488  -2.1482
 -1.0696  -1.0646  -1.0306  -1.0143  -1.0053  -0.9994  -0.9964  -0.9948
 -0.9926  -0.9486  -0.9308  -0.9154  -0.9103  -0.8961  -0.8888  -0.8408
 -0.8379  -0.7868  -0.7838  -0.7603  -0.7473  -0.7382  -0.7217  -0.7152
 -0.7025  -0.6811  -0.6699  -0.6311  -0.6208  -0.5980  -0.5786  -0.5766
 -0.5441  -0.5429  -0.5329  -0.5243  -0.5147  -0.5068  -0.5044  -0.4930
 -0.4871  -0.4844  -0.4783  -0.4719  -0.4667  -0.4619  -0.4584  -0.4538
 -0.4486  -0.4472  -0.4427  -0.4397  -0.4338  -0.4287  -0.4223  -0.4207
 -0.4153  -0.4105  -0.4077  -0.4046  -0.4024  -0.3979  -0.3963  -0.3941
 -0.3922  -0.3872  -0.3853  -0.3798  -0.3780  -0.3761  -0.3732  -0.3727
 -0.3664  -0.3652  -0.3591  -0.3587  -0.3540  -0.3486  -0.3448  -0.3401
 -0.3377  -0.3321  -0.3314  -0.3229  -0.3200  -0.3162  -0.3119  -0.3113
 -0.3062  -0.3001  -0.2926  -0.2911  -0.2821  -0.2750  -0.2677  -0.2652
 -0.2613  -0.2425  -0.2400  -0.2355  -0.2314  -0.2269  -0.2240  -0.2200
 -0.2168  -0.2150  -0.2129  -0.2063  -0.2028  -0.1963  -0.1935
 -- Virtual --
 -0.0668  -0.0640  -0.0534  -0.0184  -0.0138   0.0207   0.0295   0.0311
  0.0401   0.0421   0.0545   0.0574   0.0699   0.0744   0.0794   0.0857
  0.0879   0.0890   0.0980   0.1032   0.1083   0.1102   0.1119   0.1179
  0.1193   0.1246   0.1287   0.1324   0.1353   0.1386   0.1429   0.1509
  0.1513   0.1576   0.1603   0.1661   0.1670   0.1700   0.1752   0.1800
  0.1845   0.1851   0.1862   0.1921   0.1986   0.2036   0.2040   0.2115
  0.2164   0.2191   0.2234   0.2246   0.2301   0.2375   0.2422   0.2459
  0.2502   0.2552   0.2558   0.2603   0.2650   0.2710   0.2733   0.2791
  0.2828   0.2864   0.2888   0.2942   0.3001   0.3026   0.3188   0.3289
  0.3347   0.3426   0.3499   0.3573   0.3619   0.3685   0.3712   0.3800
  0.3877   0.3928   0.3980   0.4011   0.4138   0.4166   0.4211   0.4266
  0.4311   0.4340   0.4359   0.4423   0.4515   0.4559   0.4585   0.4636
  0.4683   0.4750   0.4818   0.4832   0.4875   0.4934   0.4970   0.5062
  0.5106   0.5195   0.5203   0.5274   0.5317   0.5356   0.5429   0.5454
  0.5465   0.5531   0.5573   0.5606   0.5624   0.5706   0.5728   0.5746
  0.5772   0.5831   0.5866   0.5895   0.5929   0.5971   0.6026   0.6078
  0.6130   0.6174   0.6187   0.6216   0.6253   0.6285   0.6317   0.6346
  0.6367   0.6384   0.6444   0.6451   0.6508   0.6516   0.6531   0.6581
  0.6601   0.6644   0.6671   0.6703   0.6740   0.6751   0.6811   0.6837
  0.6858   0.6873   0.6909   0.6927   0.6950   0.6977   0.7005   0.7030
  0.7067   0.7101   0.7130   0.7166   0.7194   0.7235   0.7293   0.7341
  0.7389   0.7417   0.7429   0.7496   0.7511   0.7565   0.7595   0.7703
  0.7736   0.7769   0.7815   0.7897   0.7956   0.7993   0.8044   0.8135
  0.8233   0.8282   0.8378   0.8428   0.8521   0.8612   0.8644   0.8720
  0.8755   0.8800   0.8914   0.8946   0.8970   0.9101   0.9165   0.9200
  0.9288   0.9326   0.9386   0.9538   0.9566   0.9664   0.9911   0.9965
  0.9990   1.0087   1.0164   1.0185   1.0271   1.0312   1.0384   1.0493
  1.0506   1.0554   1.0606   1.0668   1.0726   1.0775   1.0839   1.0972
  1.0987   1.1008   1.1069   1.1151   1.1186   1.1245   1.1282   1.1335
  1.1342   1.1367   1.1394   1.1482   1.1525   1.1565   1.1618   1.1683
  1.1720   1.1755   1.1856   1.1864   1.1903   1.1957   1.2009   1.2027
  1.2170   1.2174   1.2230   1.2286   1.2340   1.2426   1.2476   1.2489
  1.2625   1.2657   1.2693   1.2733   1.2764   1.2841   1.2861   1.2934
  1.2968   1.3054   1.3122   1.3147   1.3211   1.3311   1.3370   1.3409
  1.3477   1.3526   1.3540   1.3662   1.3719   1.3752   1.3759   1.3876
  1.3932   1.3985   1.4075   1.4151   1.4172   1.4284   1.4303   1.4388
  1.4397   1.4429   1.4510   1.4584   1.4650   1.4886   1.4942   1.4969
  1.5086   1.5139   1.5187   1.5269   1.5304   1.5311   1.5383   1.5450
  1.5543   1.5646   1.5721   1.5744   1.5803   1.5868   1.5892   1.5932
  1.5963   1.6029   1.6036   1.6112   1.6174   1.6228   1.6246   1.6327
  1.6372   1.6397   1.6456   1.6464   1.6506   1.6538   1.6570   1.6630
  1.6655   1.6674   1.6712   1.6761   1.6780   1.6837   1.6866   1.6919
  1.6930   1.6950   1.7018   1.7040   1.7071   1.7115   1.7135   1.7199
  1.7225   1.7270   1.7314   1.7342   1.7410   1.7444   1.7487   1.7546
  1.7605   1.7632   1.7668   1.7687   1.7779   1.7820   1.7861   1.7908
  1.7918   1.7940   1.7988   1.8103   1.8136   1.8178   1.8189   1.8233
  1.8255   1.8304   1.8328   1.8388   1.8436   1.8494   1.8514   1.8584
  1.8610   1.8661   1.8741   1.8763   1.8786   1.8885   1.8920   1.8962
  1.9031   1.9081   1.9138   1.9207   1.9237   1.9253   1.9378   1.9399
  1.9504   1.9553   1.9582   1.9692   1.9743   1.9788   1.9877   1.9911
  1.9996   2.0097   2.0144   2.0178   2.0292   2.0333   2.0389   2.0484
  2.0534   2.0593   2.0695   2.0709   2.0750   2.0904   2.0978   2.1038
  2.1134   2.1189   2.1234   2.1261   2.1381   2.1443   2.1494   2.1537
  2.1616   2.1666   2.1712   2.1760   2.1806   2.1847   2.1921   2.1999
  2.2024   2.2092   2.2201   2.2290   2.2356   2.2391   2.2407   2.2579
  2.2655   2.2685   2.2735   2.2758   2.2850   2.2945   2.3016   2.3069
  2.3096   2.3160   2.3252   2.3258   2.3301   2.3414   2.3464   2.3518
  2.3580   2.3612   2.3761   2.3821   2.3904   2.3946   2.4004   2.4084
  2.4094   2.4223   2.4273   2.4333   2.4431   2.4516   2.4574   2.4636
  2.4695   2.4769   2.4881   2.4927   2.4964   2.5048   2.5117   2.5159
  2.5341   2.5370   2.5389   2.5460   2.5620   2.5649   2.5697   2.5822
  2.5974   2.6065   2.6097   2.6161   2.6233   2.6447   2.6508   2.6665
  2.6778   2.6791   2.6820   2.6866   2.6957   2.7015   2.7081   2.7145
  2.7224   2.7293   2.7310   2.7351   2.7380   2.7415   2.7420   2.7470
  2.7640   2.7664   2.7708   2.7730   2.7761   2.7787   2.7867   2.7900
  2.7979   2.8196   2.8287   2.8376   2.8584   2.8616   2.8914   2.9105
  2.9181   2.9195   2.9404   2.9597   2.9717   2.9825   3.0082   3.0156
  3.0235   3.0366   3.0567   3.0685   3.1015   3.1057   3.1090   3.1189
  3.1287   3.1350   3.1478   3.1589   3.1690   3.1972   3.2114   3.2165
  3.2219   3.2464   3.2512   3.2517   3.3586   3.4058   3.4085   3.4094
  3.4146   3.4234   3.4391   3.4405   3.4550   3.4700   3.4855   3.4904
  3.5119   3.5176   3.5245   3.5396   3.5733   3.5835   3.5879   3.6057
  3.6191   3.7246   3.7337   3.7710
 --------------------------------------------------------------
 
          Ground-State Mulliken Net Atomic Charges

     Atom                 Charge (a.u.)    Spin (a.u.)
  --------------------------------------------------------
      1 N                    -0.024185       0.007061
      2 C                    -0.013569      -0.000026
      3 H                    -0.024997      -0.000001
      4 N                    -0.079639      -0.000142
      5 H                     0.073449       0.000069
      6 C                     0.092104       0.000023
      7 O                    -0.455825       0.000021
      8 C                     0.137658       0.000195
      9 O                    -0.390384       0.000580
     10 C                     0.126870       0.010951
     11 C                     0.015493       0.002227
     12 H                     0.065443      -0.000195
     13 H                     0.042961       0.000228
     14 H                     0.068573       0.001259
     15 C                     0.137882       0.006370
     16 H                    -0.006988      -0.000038
     17 H                    -0.010054       0.001315
     18 C                    -0.034975       0.004830
     19 C                     0.202600       0.004150
     20 C                     0.077970       0.005961
     21 H                     0.029757       0.001237
     22 H                     0.017863      -0.000126
     23 C                     0.141920      -0.000484
     24 O                    -0.362529       0.000356
     25 N                    -0.090715       0.000145
     26 H                     0.078023      -0.000071
     27 C                     0.098518       0.000001
     28 O                    -0.443927       0.000007
     29 N                    -0.031399       0.009570
     30 C                     0.127383       0.003333
     31 C                     0.030533       0.003005
     32 H                     0.045746       0.001231
     33 H                     0.067578       0.000010
     34 H                     0.056411       0.000229
     35 C                     0.135459       0.001901
     36 H                     0.023746       0.000545
     37 H                     0.040195       0.000953
     38 C                    -0.064412       0.000462
     39 H                     0.064594       0.001695
     40 H                     0.011486      -0.000109
     41 C                     0.009913      -0.000036
     42 H                    -0.002158       0.000049
     43 H                    -0.005100      -0.000013
     44 C                     0.048345       0.000086
     45 H                    -0.010710       0.000002
     46 H                    -0.016811       0.000002
     47 C                     0.004608       0.000014
     48 H                    -0.020136       0.000018
     49 C                     0.001399       0.000217
     50 H                     0.000068      -0.000126
     51 H                     0.007681      -0.000025
     52 C                     0.125218       0.001440
     53 H                     0.034758       0.000558
     54 H                     0.031494       0.001600
     55 C                    -0.019515      -0.000412
     56 H                     0.056854       0.001698
     57 H                    -0.018119       0.000275
     58 C                     0.053976       0.000282
     59 H                    -0.009348       0.000120
     60 H                    -0.024378       0.000023
     61 O                    -0.445993       0.000006
     62 O                    -0.444289       0.000005
     63 O                    -0.491227       0.222745
     64 Fe                    0.559397       4.174699
     65 O                    -0.399862       0.096190
     66 O                    -0.440573       0.159407
     67 O                    -0.366432       0.061458
     68 O                    -0.452281       0.119374
     69 O                    -0.371945       0.019017
     70 O                    -0.371454       0.072598
  --------------------------------------------------------
  Sum of atomic charges =    -3.000000
  Sum of spin   charges =     5.000000

 -----------------------------------------------------------------
                    Cartesian Multipole Moments
 -----------------------------------------------------------------
    Charge (ESU x 10^10)
               -14.4096
    Dipole Moment (Debye)
         X      -4.3155      Y      27.2658      Z      -6.0153
       Tot      28.2530
    Quadrupole Moments (Debye-Ang)
        XX    -503.9488     XY      14.8509     YY    -309.1147
        XZ     -45.1056     YZ     -35.6639     ZZ    -335.8321
    Octopole Moments (Debye-Ang^2)
       XXX    -757.5937    XXY     811.6653    XYY    -189.3009
       YYY     365.5973    XXZ     180.4455    XYZ      56.1642
       YYZ      48.6426    XZZ     192.4492    YZZ     193.0846
       ZZZ     -94.2191
    Hexadecapole Moments (Debye-Ang^3)
      XXXX  -25568.9627   XXXY    3766.9229   XXYY   -5561.4564
      XYYY    1613.9219   YYYY   -7965.4227   XXXZ   -1193.5574
      XXYZ    -617.8468   XYYZ    -223.2770   YYYZ    -399.5106
      XXZZ   -4229.5099   XYZZ     134.5322   YYZZ   -2316.6828
      XZZZ    -411.9880   YZZZ    -290.1430   ZZZZ   -5039.7441
 -----------------------------------------------------------------
 Calculating analytic gradient of the SCF energy
 Gradient of SCF Energy
            1           2           3           4           5           6
    1  -0.0089425  -0.0390805   0.0492508   0.0808546  -0.0613934  -0.0169259
    2   0.0673592  -0.0115535   0.0383605  -0.0218683   0.0282668  -0.0510372
    3  -0.0044661   0.0419773  -0.0368155  -0.0040894   0.0674159  -0.1558499
            7           8           9          10          11          12
    1   0.1639988  -0.1117964   0.1204944   0.0175642  -0.0007226   0.0366437
    2  -0.0026461  -0.0042152  -0.0187444  -0.0156965  -0.0096519  -0.0079880
    3   0.0895545   0.0833879  -0.1504769   0.0174299  -0.0054245  -0.0232096
           13          14          15          16          17          18
    1  -0.0361604   0.0085101   0.0014412  -0.0199433  -0.0002797  -0.0016217
    2  -0.0297331  -0.0075554  -0.0238043   0.0357151   0.0476147  -0.0288102
    3  -0.0150429   0.0442350  -0.0065784   0.0535456  -0.0537692  -0.0055487
           19          20          21          22          23          24
    1  -0.0055714   0.0352028   0.0002656  -0.0415407  -0.0295542   0.0747262
    2  -0.0321441  -0.0004707   0.0537028  -0.0514672  -0.0774260   0.0869836
    3   0.1834522   0.0426572  -0.0459016  -0.0312535  -0.1145668   0.1413026
           25          26          27          28          29          30
    1  -0.0220452  -0.0335557   0.1418150  -0.1396269  -0.0106961  -0.0195699
    2   0.0365299  -0.0378548  -0.0126323   0.0732273   0.0072944   0.0065616
    3   0.0583093  -0.0639330   0.0527777   0.0810211  -0.0659602   0.0149427
           31          32          33          34          35          36
    1  -0.0027729  -0.0465541   0.0201058   0.0302855   0.0074631  -0.0381952
    2  -0.0082177  -0.0084980   0.0499171  -0.0391615   0.0060202  -0.0171679
    3   0.0092605   0.0147037   0.0240251   0.0135161   0.0018271  -0.0416142
           37          38          39          40          41          42
    1  -0.0117803  -0.0177582   0.0265196   0.0362951   0.0160182  -0.0194926
    2  -0.0222603  -0.0085498   0.0258533   0.0155943   0.0050005  -0.0211760
    3   0.0448857   0.0078265  -0.0544259   0.0445008   0.0037462   0.0403441
           43          44          45          46          47          48
    1  -0.0351470   0.0005055   0.0467613  -0.0402751  -0.0115963   0.0110582
    2  -0.0110769  -0.0108571   0.0111728   0.0134368  -0.0391805   0.0642991
    3  -0.0406615  -0.0344625   0.0335216   0.0353212  -0.0301427   0.0215344
           49          50          51          52          53          54
    1   0.0004758  -0.0302318   0.0443226  -0.0170116   0.0351588   0.0172393
    2   0.0065766  -0.0291416  -0.0059380   0.0051135   0.0303623  -0.0441272
    3  -0.0138131   0.0308033   0.0160646   0.0080440  -0.0337497   0.0012297
           55          56          57          58          59          60
    1   0.0264391  -0.0700412   0.0074644  -0.0219925  -0.0004237   0.0552352
    2  -0.0016870   0.0079980   0.0101619   0.0047436  -0.0175635  -0.0067679
    3  -0.0093723  -0.0213745   0.0594306   0.0125017  -0.0595286   0.0125003
           61          62          63          64          65          66
    1  -0.1348340  -0.0306890  -0.0042436   0.0004201  -0.0092757   0.0290879
    2   0.0638903  -0.0583673   0.0051127   0.0053175  -0.0945011  -0.0026950
    3   0.0945283  -0.1396533   0.0320252   0.0044103  -0.0342510   0.0043368
           67          68          69          70
    1  -0.0755539  -0.0275018   0.0178445   0.0849296
    2  -0.0019324  -0.0163164   0.1083273  -0.0100312
    3  -0.0397412   0.0055534  -0.1892513  -0.0235224
 Max gradient component =       1.893E-01
 RMS gradient           =       5.090E-02
 Computing fast CPCM-SWIG gradient
 Updating gradient with PCM contributions...
 -- total gradient after adding PCM contribution --
---------------------------------------------------
  Atom         X              Y              Z     
---------------------------------------------------
   1      -0.000035      -0.000659      -0.002182
   2       0.000093      -0.000491       0.000561
   3      -0.000218       0.000272       0.000156
   4      -0.000274       0.000469       0.001090
   5       0.000083      -0.000065      -0.000549
   6       0.001821      -0.000457      -0.000176
   7      -0.000147       0.000007      -0.000262
   8       0.000341      -0.000642      -0.000385
   9      -0.000030       0.000403      -0.000115
  10      -0.002006       0.000399       0.000474
  11       0.000909      -0.000101      -0.000568
  12      -0.000209       0.000134       0.000025
  13       0.000035       0.000100       0.000102
  14      -0.000493      -0.000078       0.000070
  15       0.000005       0.000098       0.000508
  16       0.000255       0.000397      -0.000295
  17      -0.000099      -0.000027       0.000008
  18      -0.000160      -0.000893       0.000275
  19       0.000041       0.001309      -0.000439
  20      -0.000528       0.000527      -0.000512
  21       0.000384      -0.000128       0.000130
  22      -0.000058       0.000002       0.000221
  23      -0.000589       0.000519       0.000002
  24       0.000154      -0.000011      -0.000020
  25       0.000202      -0.001197      -0.000173
  26       0.000058       0.000369       0.000216
  27       0.001205      -0.000924      -0.001025
  28      -0.000424       0.000632       0.000989
  29       0.000682       0.002968       0.000840
  30       0.001879      -0.000618       0.000164
  31       0.000141       0.000090      -0.000716
  32      -0.000051      -0.000435      -0.000088
  33      -0.000170      -0.000087      -0.000156
  34       0.000095       0.000179      -0.000031
  35      -0.000132       0.000251      -0.000243
  36      -0.000045      -0.000236       0.000185
  37      -0.000404      -0.000199      -0.000076
  38      -0.000299      -0.000479       0.000299
  39       0.000297       0.000217       0.000287
  40       0.000021      -0.000287      -0.000030
  41       0.000215       0.000001       0.000116
  42       0.000079       0.000413       0.000076
  43       0.000044      -0.000370      -0.000015
  44       0.000270      -0.000321      -0.000468
  45      -0.000360       0.000333       0.000270
  46       0.000151      -0.000141       0.000328
  47      -0.001270       0.000585      -0.001146
  48       0.000293      -0.000114       0.000086
  49      -0.000240       0.000080       0.000332
  50       0.000024       0.000107      -0.000150
  51       0.000075       0.000044       0.000020
  52       0.000441       0.000163      -0.000756
  53       0.000099      -0.000245      -0.000007
  54      -0.000022      -0.000015       0.000537
  55      -0.000252      -0.000117       0.000814
  56       0.000426      -0.000220      -0.000389
  57       0.000145       0.000282      -0.000097
  58      -0.000046       0.000241      -0.000660
  59      -0.000023       0.000227       0.000145
  60      -0.000203      -0.000209       0.000192
  61      -0.001154       0.000285      -0.000360
  62       0.000344       0.000301       0.000439
  63      -0.001731       0.001611       0.000359
  64      -0.002061       0.001965      -0.000961
  65      -0.000308      -0.000388      -0.001241
  66       0.002102       0.000619       0.001527
  67       0.002413      -0.003222      -0.000024
  68       0.001022      -0.001396      -0.000126
  69       0.000261      -0.000607       0.000659
  70      -0.003063      -0.001218       0.001937
---------------------------------------------------
 Number of fixed atoms: 0
 Gradient time:  CPU 22878.98 s  wall 1565.17 s

 *****************************************************
             Starting BFGS Algorithm
 *****************************************************
            LIBOPT3 RUN PARAMETERS

  Geometry Optimization Coordinates :
	Delocalized Natural Internal Coordinates

  Step Length Selection Method :
	Eigenvector Following Algorithm

  Convergence Criteria :
	Max Gradient Component    	3.00000000e-04
	Max Displacement Component	1.20000000e-03
	Absolute Energy Difference	1.00000000e-06

  Initial Hessian :
	Approximate Hessian - Simple Internal Coordinate Scaled

  Type of Verification :
	Verify with final updated Hessian
 *****************************************************

	OPTIMIZATION CYCLE:	1

 Scaling Magnitude of Eigenvalues
 	Minimum: -25.00000000	 Maximum: 25.00000000
 204 Hessian Eigenvalues to form next step
   0.10000000   0.10000000   0.10000000   0.10000000   0.10000000
   0.10000000   0.10000000   0.10000000   0.10000000   0.10000000
   0.10000016   0.10000059   0.10000098   0.10000218   0.10000389
   0.10000571   0.10000788   0.10000789   0.10002343   0.10002652
   0.10005453   0.10027472   0.10028593   0.10038557   0.10054706
   0.10122034   0.10135669   0.10276595   0.10347573   0.10439835
   0.10606609   0.10673779   0.10986568   0.11080709   0.11185509
   0.11321879   0.11441753   0.11575862   0.11744670   0.11892913
   0.11937784   0.11964383   0.12026207   0.12157554   0.12314265
   0.12325589   0.12410525   0.12498216   0.12533987   0.12575698
   0.12652444   0.12691444   0.12707093   0.12749829   0.12906384
   0.13026823   0.13190909   0.13258721   0.13361770   0.13475832
   0.13534558   0.13643591   0.13948814   0.14005409   0.14058050
   0.14164362   0.14243705   0.14421933   0.14551602   0.14567699
   0.14702890   0.15047582   0.15222152   0.15254587   0.15269835
   0.15390525   0.15454748   0.15503362   0.15531965   0.15602645
   0.15677863   0.15850211   0.15962959   0.16261287   0.16595119
   0.17446491   0.17579117   0.17671980   0.17738130   0.17757732
   0.17796438   0.17877578   0.17930454   0.18055120   0.18122887
   0.18363785   0.18446912   0.18588105   0.18764930   0.18940668
   0.18980069   0.19212720   0.19650864   0.19756056   0.19774294
   0.19851373   0.19871391   0.19960803   0.19965293   0.19993808
   0.19996282   0.19997813   0.19998647   0.19999387   0.19999518
   0.19999967   0.20000000   0.20000000   0.20000000   0.20000000
   0.20000000   0.20000000   0.20000000   0.20000000   0.20000000
   0.20000000   0.21661274   0.23419060   0.25433463   0.28700324
   0.39958528   0.42181241   0.42933923   0.43200688   0.43404706
   0.43619347   0.45500290   0.47248675   0.48198878   0.48404487
   0.48533471   0.49066601   0.49518105   0.49769100   0.49909385
   0.49958447   0.49986464   0.49995507   0.50000000   0.50000000
   0.50000000   0.50000000   0.50000000   0.50000000   0.50000000
   0.50000000   0.50000000   0.50000000   0.50000000   0.50000000
   0.50000000   0.50000000   0.50000000   0.50000000   0.50000000
   0.50000000   0.50000000   0.50000000   0.50000000   0.50000000
   0.50000000   0.50000000   0.50000000   0.50000000   0.50000000
   0.50000000   0.50000000   0.50000000   0.50000000   0.50000000
   0.50000000   0.50000000   0.50000000   0.50000000   0.50000000
   0.50000000   0.50000000   0.50000000   0.50000000   0.50000000
   0.50000000   0.50000000   0.50000000   0.50000000   0.50000000
   0.50000000   0.50000000   0.50000000   0.50000000   0.50000000
   0.50837309   0.51204317   0.51485871   0.51976568

 Minimum Search taking a RFO step
 Searching for Lambda that minimizes along all modes
	Value of Lambda   -0.00020847
	Norm  of Stepsize  0.03431451
	RMS   of Stepsize  0.00240250

	Performing Iterative Coordinate Back-Transformation

	  Starting from Previous Position

	  iter:	0	rms: 7.0472890084e-03	maxdev: 2.9087455023e-02
	  iter:	1	rms: 1.4418722737e-05	maxdev: 7.4712965999e-05
	  iter:	2	rms: 5.3847879631e-11	maxdev: 3.1229345180e-10	 Success!

	Finished Iterative Coordinate Back-Transformation
 Adding empirical dispersion correction 
 ----------------------------------------------------------------
 Doing -D3(BJ) with
 s6  =   1.00000e+00
 s8  =   1.98890e+00
 a1  =   3.98100e-01
 a2  =   4.42110e+00
 -D3 energy without 3body term =     -1.7009578273e-01 hartrees
 ----------------------------------------------------------------
             Standard Nuclear Orientation (Angstroms)
    I     Atom           X                Y                Z
 ----------------------------------------------------------------
    1      N      -2.6848100632     2.6386008056     0.8147059745
    2      C      -4.0741254385    -1.7659535285    -0.7733407404
    3      H      -4.7923550759    -2.3719198786    -0.1922961759
    4      N      -2.7286510405    -2.0553349991    -0.3041588573
    5      H      -2.1240996864    -2.3709708145    -1.0617371159
    6      C      -4.1709029328    -2.2100425473    -2.2649288904
    7      O      -5.3072427942    -2.1102839116    -2.7926653109
    8      C      -2.3418090603    -2.1419443493     0.9831183207
    9      O      -3.0945773292    -1.8620401279     1.9332881903
   10      C      -1.8727238465     3.6365591492     1.1602923201
   11      C      -2.3025661927     5.0679746087     0.9769862639
   12      H      -3.2109474982     5.2951828087     1.5563853866
   13      H      -1.4885864482     5.7199624188     1.3165990677
   14      H      -2.5166904012     5.2821470308    -0.0815883222
   15      C      -0.9176906804    -2.6233417698     1.2067839632
   16      H      -0.5489417260    -3.1748363305     0.3326731020
   17      H      -0.9252777614    -3.2873807434     2.0828053526
   18      C       0.0866574500    -1.4723585757     1.4603556082
   19      C      -0.1411573820    -0.8004661393     2.8504087794
   20      C       1.5245379318    -2.0468503132     1.5920421430
   21      H       1.5064337201    -2.8682816147     2.3282646544
   22      H       2.1655442999    -1.2612184177     2.0209643379
   23      C       2.2076164377    -2.5657866092     0.3301311749
   24      O       1.6165885184    -3.0895492844    -0.6274748232
   25      N       3.5483926435    -2.4320787350     0.3761821794
   26      H       4.0153498954    -2.0122183347     1.1811281133
   27      C       5.9285345428    -2.7545319141    -0.0006346126
   28      O       6.8563254483    -3.2649715671    -0.6738511247
   29      N       1.8808649794     2.1518480069    -0.7133017010
   30      C       0.8106796477     2.1681692184    -1.5125545882
   31      C       0.9396167410     2.3571969681    -2.9975932861
   32      H       1.9608798471     2.5556603158    -3.3381080555
   33      H       0.5643497621     1.4507984128    -3.4991308961
   34      H       0.2889142669     3.1932362935    -3.2970122910
   35      C       3.2216696545     1.7402242225    -1.1508154059
   36      H       3.9188950550     2.0833868147    -0.3734201514
   37      H       3.4775225657     2.2541757499    -2.0866108968
   38      C       3.2368192650     0.2194991392    -1.2956947760
   39      H       2.8367556838    -0.1815205658    -0.3579907659
   40      H       2.5193241326    -0.0595176629    -2.0877031447
   41      C       4.5910306620    -0.4124597618    -1.6151936568
   42      H       5.0245231223     0.0915554075    -2.4974844902
   43      H       5.2947931995    -0.2435809045    -0.7809849328
   44      C       4.4775385177    -1.9227465944    -1.9009250770
   45      H       3.5520384378    -2.1155787351    -2.4688076740
   46      H       5.3224941370    -2.2562832312    -2.5228785711
   47      C       4.5058969744    -2.8178900464    -0.6437834281
   48      H       4.3194749505    -3.8579975518    -0.9600093074
   49      C      -4.0530887069     2.1674434635    -1.2257185622
   50      H      -3.4063380597     2.8055120225    -1.8522556522
   51      H      -5.0886878335     2.3223651297    -1.5797324879
   52      C      -4.0088314221     2.7021779305     0.2131563680
   53      H      -4.6836365448     2.1214445550     0.8624392800
   54      H      -4.3466308252     3.7457849332     0.2372335587
   55      C      -3.6596748098     0.6944393679    -1.4295927279
   56      H      -2.5967738284     0.5647002627    -1.1873344355
   57      H      -3.7837666478     0.4675005528    -2.5039168539
   58      C      -4.4919611827    -0.2918906644    -0.6104720946
   59      H      -4.4215739386    -0.0436216256     0.4573106175
   60      H      -5.5526348321    -0.2253765343    -0.9052643542
   61      O      -3.1018692822    -2.6082631446    -2.8092048235
   62      O       6.0173658225    -2.1668507568     1.1163638959
   63      O      -0.0012042553    -0.5166061460     0.4472148060
   64      Fe     -0.2456949513     1.3036021801     0.9804931014
   65      O      -0.0845741363     0.5008816018     2.8328928796
   66      O      -2.2244937825     1.3791590784     1.0385838076
   67      O      -0.7216563795     3.3430365826     1.6191657097
   68      O       1.6541118558     1.9270872121     0.6212130692
   69      O      -0.2751177417    -1.4798280489     3.8729093148
   70      O      -0.3473152501     2.0417962361    -1.0031661791
 ----------------------------------------------------------------
 Nuclear Repulsion Energy =        6062.10900073 hartrees
 There are      164 alpha and      159 beta electrons
No default van der Waals radius is available for Z = 26
	Found R = 2.4400 A in the $van_der_waals section
 Discretize the solute cavity surface with Lebedev spheres
	Using 110 Lebedev grid points for each H atom
	Using 194 Lebedev grid points for other atoms
	Atomic van der Waals radii (Bondi set) will be scaled by 1.20
 Using smooth SwiG surface discretization
 Remove points where switching function is < 1.0e-08
 Keep 4107 surface tesserae and discard 6953 interior tesserae
 Molecular Surface Area = 531.558 Angst**2

 Applying Cartesian multipole field
    Component          Value
    ---------          -----
     (2,0,0)        1.00000E-12
     (0,2,0)        2.00000E-12
     (0,0,2)       -3.00000E-11
 Nucleus-field energy     =-6.5156875173e-08 hartrees
 Read the previous MOs as SCF guess

 -----------------------------------------------------------------------
  General SCF calculation program by
  Eric Jon Sundstrom, Paul Horn, Yuezhi Mao, Dmitri Zuev, Alec White,
  David Stuck, Shaama M.S., Shane Yost, Joonho Lee, David Small,
  Daniel Levine, Susi Lehtola, Hugh Burton, Evgeny Epifanovsky,
  Bang C. Huynh
 -----------------------------------------------------------------------
 Requested basis set is non-standard
 There are 339 shells and 739 basis functions
 Exchange:     0.2000 Hartree-Fock + 0.0800 Slater + 0.7200 B88
 Correlation:  0.1900 VWN1RPA + 0.8100 LYP
 Using SG-1 standard quadrature grid
 Dispersion:   Grimme D3
 A cutoff of  1.0D-12 yielded  45686 shell pairs
 There are    198986 function pairs (    220724 Cartesian)
 Smallest overlap matrix eigenvalue = 2.93E-04
 A unrestricted SCF calculation will be
 performed using DIIS
 SCF converges when DIIS error is below 1.0e-08
 ---------------------------------------
  Cycle       Energy         DIIS error
 ---------------------------------------
    1   -3317.4726843117      2.26e-04  
    2   -3317.9360643169      3.51e-04  
    3   -3317.9832821635      1.47e-04  
    4   -3317.9896909074      9.88e-05  
    5   -3317.9929868173      7.32e-05  
    6   -3317.9948281138      5.49e-05  
    7   -3317.9962876305      3.39e-05  
    8   -3317.9969570573      1.60e-05  
    9   -3317.9971326821      5.11e-06  
   10   -3317.9971505413      1.37e-06  
   11   -3317.9971517044      4.59e-07  
   12   -3317.9971518234      2.10e-07  
   13   -3317.9971518428      9.26e-08  
   14   -3317.9971518461      4.77e-08  
   15   -3317.9971518469      1.70e-08  
   16   -3317.9971518471      1.01e-08  
   17   -3317.9971518468      5.83e-09  Convergence criterion met
 ---------------------------------------
 SCF time:   CPU 22605.46s  wall 1789.00s 
<S^2> =          8.758076443

************** Final PCM Free Energy Summary **************
 G_electrostatic  =      -0.52643963 hartree =    -330.34585669 kcal/mol
 G_cavitation     =       0.00000000 hartree =       0.00000000 kcal/mol
 G_dispersion     =       0.00000000 hartree =       0.00000000 kcal/mol
 G_repulsion      =       0.00000000 hartree =       0.00000000 kcal/mol
 --------------------------------------------------
 Non-electrostatic Free Energy =       0.00000000 hartree =       0.00000000 kcal/mol
 Total                         =      -0.52643963 hartree =    -330.34585669 kcal/mol
 --------------------------------------------------
 SCF Energy (H0 + V/2)                       =   -3317.99715185 
 Solute Internal Energy (H0)                 =   -3317.47071221 
 Total Free Energy (H0 + V/2 + non-elec)     =   -3317.99715185 hartree
                                             = -2082074.63753489 kcal/mol
***********************************************************

 SCF   energy in the final basis set =    -3317.9971518468
 Total energy in the final basis set =    -3317.9971518468
 
 --------------------------------------------------------------
 
                    Orbital Energies (a.u.)
 --------------------------------------------------------------
 
 Alpha MOs
 -- Occupied --
******** -30.1213 -25.9753 -25.9725 -25.9714 -19.1216 -19.1168 -19.1154
-19.1149 -19.1055 -19.0920 -19.0848 -19.0824 -19.0800 -19.0609 -19.0569
-19.0539 -19.0501 -14.4000 -14.3974 -14.3245 -14.3190 -10.2799 -10.2769
-10.2694 -10.2670 -10.2595 -10.2466 -10.2431 -10.2218 -10.2155 -10.2148
-10.1966 -10.1915 -10.1892 -10.1885 -10.1759 -10.1750 -10.1717 -10.1693
-10.1686 -10.1636 -10.1589 -10.1588  -3.6036  -2.3814  -2.3762  -2.3741
 -1.0743  -1.0691  -1.0344  -1.0144  -1.0052  -1.0024  -0.9992  -0.9985
 -0.9947  -0.9568  -0.9403  -0.9155  -0.9107  -0.8964  -0.8885  -0.8452
 -0.8424  -0.7871  -0.7841  -0.7624  -0.7477  -0.7392  -0.7227  -0.7164
 -0.7031  -0.6816  -0.6703  -0.6319  -0.6212  -0.5994  -0.5789  -0.5776
 -0.5451  -0.5446  -0.5379  -0.5277  -0.5191  -0.5114  -0.5063  -0.4996
 -0.4948  -0.4890  -0.4824  -0.4789  -0.4683  -0.4656  -0.4603  -0.4554
 -0.4531  -0.4485  -0.4442  -0.4422  -0.4357  -0.4319  -0.4262  -0.4256
 -0.4232  -0.4185  -0.4132  -0.4118  -0.4054  -0.4041  -0.4023  -0.4001
 -0.3979  -0.3949  -0.3939  -0.3921  -0.3913  -0.3845  -0.3821  -0.3782
[...]
    3  -0.0006695   0.0422939  -0.0382815  -0.0044558   0.0671953  -0.1530242
            7           8           9          10          11          12
    1   0.1645039  -0.1110686   0.1186772   0.0228055  -0.0007286   0.0400231
    2  -0.0034911  -0.0009684  -0.0231358  -0.0172886  -0.0091601  -0.0052136
    3   0.0885304   0.0848094  -0.1504864   0.0179101  -0.0054607  -0.0187186
           13          14          15          16          17          18
    1  -0.0328159   0.0028286   0.0011628  -0.0187408   0.0001851  -0.0008602
    2  -0.0294538  -0.0108277  -0.0260500   0.0371446   0.0468260  -0.0287410
    3  -0.0219512   0.0445489  -0.0068057   0.0532964  -0.0545158  -0.0053721
           19          20          21          22          23          24
    1  -0.0091501   0.0335925   0.0028604  -0.0419268  -0.0277654   0.0729326
    2  -0.0304871   0.0002804   0.0543544  -0.0502184  -0.0862302   0.0993461
    3   0.1856910   0.0396789  -0.0457533  -0.0321143  -0.1062279   0.1333615
           25          26          27          28          29          30
    1  -0.0219012  -0.0342775   0.1410750  -0.1368383  -0.0086893  -0.0246385
    2   0.0302033  -0.0388187  -0.0132184   0.0781861   0.0081859   0.0071952
    3   0.0625296  -0.0643936   0.0546097   0.0789359  -0.0654166   0.0164517
           31          32          33          34          35          36
    1  -0.0001445  -0.0404494  -0.0001116   0.0406260   0.0076967  -0.0384038
    2  -0.0082903  -0.0228986   0.0495223  -0.0278492   0.0052881  -0.0119870
    3   0.0087904   0.0089547   0.0259844   0.0167870   0.0022579  -0.0440594
           37          38          39          40          41          42
    1  -0.0142402  -0.0164740   0.0318253   0.0306499   0.0162135  -0.0218189
    2  -0.0252004  -0.0081001   0.0300241   0.0098743   0.0051569  -0.0200377
    3   0.0409018   0.0078835  -0.0503909   0.0472502   0.0030640   0.0400100
           43          44          45          46          47          48
    1  -0.0326534  -0.0005649   0.0472884  -0.0400333  -0.0129868   0.0127972
    2  -0.0115245  -0.0122537   0.0120350   0.0149099  -0.0387379   0.0649731
    3  -0.0417469  -0.0337081   0.0329128   0.0350074  -0.0295919   0.0196320
           49          50          51          52          53          54
    1   0.0011380  -0.0309806   0.0442361  -0.0180099   0.0351439   0.0169116
    2   0.0064849  -0.0285012  -0.0067450   0.0055106   0.0295036  -0.0443784
    3  -0.0146026   0.0314592   0.0158894   0.0083103  -0.0344058   0.0019584
           55          56          57          58          59          60
    1   0.0257046  -0.0705532   0.0089347  -0.0208857  -0.0012432   0.0555000
    2  -0.0020456   0.0087663   0.0110312   0.0048839  -0.0189815  -0.0066962
    3  -0.0098416  -0.0194829   0.0588029   0.0123352  -0.0590285   0.0120037
           61          62          63          64          65          66
    1  -0.1317152  -0.0333872  -0.0047255   0.0035485  -0.0105762   0.0280016
    2   0.0694923  -0.0618030   0.0051598   0.0028988  -0.0941630  -0.0025687
    3   0.0925923  -0.1392147   0.0323083   0.0030697  -0.0325646   0.0045791
           67          68          69          70
    1  -0.0799191  -0.0298701   0.0224006   0.0902593
    2   0.0003866  -0.0150474   0.1051777  -0.0089368
    3  -0.0401966   0.0052056  -0.1919147  -0.0233959
 Max gradient component =       1.919E-01
 RMS gradient           =       5.096E-02
 Computing fast CPCM-SWIG gradient
 Updating gradient with PCM contributions...
 -- total gradient after adding PCM contribution --
---------------------------------------------------
  Atom         X              Y              Z     
---------------------------------------------------
   1       0.000044       0.000123      -0.000233
   2       0.000038      -0.000098       0.000122
   3      -0.000027       0.000011      -0.000065
   4      -0.000045       0.000002      -0.000069
   5       0.000013       0.000030       0.000021
   6      -0.000040       0.000035      -0.000037
   7       0.000000       0.000003       0.000008
   8      -0.000053       0.000013      -0.000058
   9       0.000025       0.000025      -0.000024
  10       0.000034      -0.000021       0.000026
  11       0.000098       0.000079      -0.000043
  12      -0.000001      -0.000008      -0.000008
  13      -0.000026      -0.000022       0.000022
  14      -0.000037      -0.000026       0.000010
  15       0.000071      -0.000131       0.000277
  16      -0.000033       0.000045      -0.000066
  17      -0.000004       0.000018      -0.000050
  18      -0.000009       0.000102      -0.000078
  19      -0.000070      -0.000152      -0.000010
  20      -0.000068      -0.000026       0.000048
  21       0.000034       0.000015       0.000007
  22      -0.000009      -0.000003      -0.000004
  23       0.000046       0.000020      -0.000027
  24      -0.000014      -0.000016      -0.000000
  25      -0.000068       0.000031       0.000029
  26       0.000024      -0.000005      -0.000010
  27       0.000008       0.000020       0.000046
  28      -0.000006      -0.000022      -0.000003
  29       0.000160       0.000112       0.000014
  30      -0.000175       0.000262      -0.000156
  31       0.000024      -0.000060       0.000200
  32       0.000015      -0.000022       0.000004
  33      -0.000059       0.000009      -0.000008
  34       0.000012       0.000002      -0.000033
  35      -0.000010      -0.000119       0.000062
  36       0.000012       0.000042      -0.000022
  37      -0.000010       0.000036      -0.000002
  38       0.000024      -0.000043       0.000116
  39      -0.000062      -0.000023      -0.000055
  40       0.000026       0.000054      -0.000029
  41       0.000019       0.000029      -0.000061
  42      -0.000046      -0.000041      -0.000007
  43       0.000039       0.000041      -0.000020
  44      -0.000048      -0.000033       0.000084
  45       0.000033       0.000001      -0.000046
  46       0.000017       0.000012       0.000007
  47       0.000037      -0.000075      -0.000037
  48      -0.000036       0.000023      -0.000001
  49      -0.000094      -0.000022       0.000106
  50       0.000009      -0.000015      -0.000018
  51       0.000026       0.000060      -0.000059
  52      -0.000035      -0.000026       0.000150
  53       0.000034      -0.000019      -0.000004
  54       0.000008       0.000001      -0.000027
  55      -0.000074      -0.000041      -0.000049
  56      -0.000009       0.000024       0.000007
  57       0.000053      -0.000002      -0.000007
  58       0.000023       0.000046       0.000112
  59       0.000007       0.000000      -0.000021
  60       0.000019       0.000015      -0.000056
  61       0.000025      -0.000000       0.000014
  62      -0.000011      -0.000022      -0.000035
  63      -0.000028      -0.000054      -0.000096
  64       0.000238      -0.000027       0.000160
  65       0.000016       0.000152      -0.000089
  66       0.000056      -0.000085       0.000090
  67      -0.000100       0.000037       0.000143
  68      -0.000309      -0.000138      -0.000030
  69       0.000058       0.000058      -0.000042
  70       0.000191      -0.000193      -0.000090
---------------------------------------------------
 Number of fixed atoms: 0
 Gradient time:  CPU 19051.61 s  wall 1236.36 s

     Step 35	:
        Energy is -3317.9981243460
                            Maximum         Tolerance       Converged?
         Gradient           1.44047935e-04	3.00000000e-04	true
         Displacement       8.95359134e-03	1.20000000e-03	false
         Energy change      7.13095687e-07	1.00000000e-06	true

	 Optimization Converged in 35 cycles

 *****************************************************
             End of BFGS Algorithm
 *****************************************************
		----------------------------------
		   Verification of Optimization
		----------------------------------

 Eigenvalues of Hessian in Optimization Verification
   0.00075235   0.00176873   0.00440169   0.01259632   0.01593095
   0.02519693   0.04388711   0.05961583   0.06926554   0.10000024
   0.10000052   0.10000128   0.10000207   0.10000384   0.10000519
   0.10000879   0.10001085   0.10001841   0.10002145   0.10004068
   0.10004794   0.10008201   0.10013632   0.10022044   0.10027711
   0.10046113   0.10075256   0.10091503   0.10294960   0.10314280
   0.10363352   0.10528154   0.10551239   0.10673815   0.10974208
   0.11139904   0.11341080   0.11406254   0.11477508   0.11636209
   0.11805656   0.11927214   0.11971458   0.12067802   0.12155883
   0.12242177   0.12295604   0.12386394   0.12507576   0.12541738
   0.12593699   0.12639293   0.12695080   0.12707523   0.12778113
   0.12973745   0.13152170   0.13277654   0.13309798   0.13447700
   0.13481584   0.13679152   0.13771871   0.13899580   0.14028477
   0.14152990   0.14212997   0.14363828   0.14405374   0.14551730
   0.14646583   0.15043615   0.15193618   0.15242617   0.15267784
   0.15401066   0.15485109   0.15517333   0.15540909   0.15581134
   0.15673693   0.15838111   0.15944509   0.16201800   0.16533410
   0.17404059   0.17586022   0.17641062   0.17657732   0.17759495
   0.17793688   0.17802567   0.17901809   0.18005904   0.18038488
   0.18191560   0.18327647   0.18447908   0.18700117   0.18934388
   0.19042550   0.19302870   0.19657608   0.19746081   0.19773540
   0.19817442   0.19870493   0.19934695   0.19960255   0.19979362
   0.19987794   0.19995100   0.19996147   0.19999662   0.20000304
   0.20003169   0.20040507   0.20064215   0.20114755   0.20177986
   0.20529902   0.20908259   0.21236052   0.21796299   0.22126907
   0.24006357   0.24257921   0.24916099   0.27569848   0.30615161
   0.31882343   0.33026912   0.33401702   0.39990357   0.42977043
   0.43198682   0.44778825   0.45314601   0.46735443   0.47292060
   0.47662902   0.47838524   0.48487529   0.48763480   0.48872355
   0.49169295   0.49542525   0.49772992   0.49895886   0.49916478
   0.49981870   0.49987152   0.49992517   0.49995805   0.49998380
   0.49999615   0.49999983   0.50000000   0.50000000   0.50000000
   0.50000000   0.50000000   0.50000000   0.50000000   0.50000000
   0.50000000   0.50000000   0.50000000   0.50000000   0.50000000
   0.50000000   0.50000000   0.50000000   0.50000001   0.50000003
   0.50000006   0.50000011   0.50000018   0.50000038   0.50000043
   0.50000063   0.50000111   0.50000154   0.50000292   0.50000497
   0.50000553   0.50001190   0.50003791   0.50009145   0.50031565
   0.50080693   0.50139519   0.50405892   0.50499129   0.50785164
   0.51041395   0.51249761   0.51633438   0.53603574   0.54315466
   0.55994302   0.57196169   0.58196417   0.61090564

 Found a minimum
		---------------------------------
		       End of Verification
		---------------------------------

 Final energy is -3317.998124345994

	******************************
	**  OPTIMIZATION CONVERGED  **
	******************************
 Adding empirical dispersion correction 
 ----------------------------------------------------------------
 Doing -D3(BJ) with
 s6  =   1.00000
 s8  =   1.98890
 a1  =   0.39810
 a2  =   4.42110
 -D3 energy without 3body term =     -0.1692143513 hartrees
 ----------------------------------------------------------------
             Standard Nuclear Orientation (Angstroms)
    I     Atom           X                Y                Z
 ----------------------------------------------------------------
    1      N      -2.6690460690     2.6220599658     0.7742125832
    2      C      -4.1030210352    -1.7871286564    -0.7353219795
    3      H      -4.8113113598    -2.3827662744    -0.1312774106
    4      N      -2.7509546812    -2.0627017759    -0.2748885164
    5      H      -2.1601995223    -2.4160716374    -1.0265919265
    6      C      -4.2198781857    -2.2697574362    -2.2130858857
    7      O      -5.3568054950    -2.1576244857    -2.7365686472
    8      C      -2.3546706603    -2.1196453188     1.0117120874
    9      O      -3.0996645318    -1.8138143173     1.9596236822
   10      C      -1.8782082006     3.6231145845     1.1629468058
   11      C      -2.3422297598     5.0514035636     1.0426880958
   12      H      -3.3233995435     5.2077668358     1.5141775457
   13      H      -1.6004397733     5.6947433349     1.5316735085
   14      H      -2.4225888814     5.3452427730    -0.0161420567
   15      C      -0.9337010121    -2.6112806148     1.2369945079
   16      H      -0.5737004930    -3.1822230007     0.3716409291
   17      H      -0.9491270356    -3.2647717016     2.1208735774
   18      C       0.0909600939    -1.4756286552     1.4815707037
   19      C      -0.1466659359    -0.7735465865     2.8544679404
   20      C       1.5149764142    -2.0811871562     1.6483693525
   21      H       1.4591086060    -2.9098390628     2.3738018588
   22      H       2.1619365543    -1.3109349687     2.0947772096
   23      C       2.2000769619    -2.6013996073     0.3911213625
   24      O       1.6200690808    -3.2187302047    -0.5167361725
   25      N       3.5248572544    -2.3525938337     0.3698825591
   26      H       3.9999744472    -1.9232440814     1.1645975325
   27      C       5.8972468581    -2.7509173686    -0.0030295622
   28      O       6.8102406932    -3.3003362362    -0.6659706149
   29      N       1.9392444957     2.1684635126    -0.7117912411
   30      C       0.8817989985     2.2546384120    -1.5250811744
   31      C       1.0650735236     2.5248236781    -2.9920973280
   32      H       1.9900926725     3.0694200243    -3.2170616056
   33      H       1.0756428075     1.5718446066    -3.5465059672
   34      H       0.2019120940     3.1072278848    -3.3425687726
   35      C       3.2675958988     1.7319358952    -1.1580930960
   36      H       3.9611386350     1.9762989971    -0.3412016998
   37      H       3.5672697043     2.3138996228    -2.0408677215
   38      C       3.2289437851     0.2292886384    -1.4365020621
   39      H       2.7263051638    -0.2362436154    -0.5801071799
   40      H       2.5851270539     0.0518154825    -2.3160095029
   41      C       4.5848017697    -0.4331087480    -1.6770762779
   42      H       5.0707007475     0.0398102045    -2.5485315814
   43      H       5.2481676914    -0.2526068559    -0.8124425838
   44      C       4.4532767803    -1.9487400926    -1.9216779814
   45      H       3.5261543448    -2.1502102141    -2.4848361740
   46      H       5.2917679509    -2.3115186403    -2.5357969131
   47      C       4.4716334943    -2.8007419968    -0.6347117532
   48      H       4.2482973346    -3.8443208539    -0.9116820589
   49      C      -4.0539217216     2.1341056959    -1.2558950236
   50      H      -3.3967753756     2.7542582177    -1.8895920592
   51      H      -5.0870851146     2.3088908205    -1.6077594555
   52      C      -3.9967025247     2.6835797118     0.1780511340
   53      H      -4.6766981274     2.1190138511     0.8364633329
   54      H      -4.3249475028     3.7302065420     0.1828261036
   55      C      -3.6924613409     0.6521217270    -1.4516338521
   56      H      -2.6278431251     0.5067172181    -1.2283302096
   57      H      -3.8456846578     0.4111094122    -2.5189139387
   58      C      -4.5187401103    -0.3109459666    -0.5990810270
   59      H      -4.4347148417    -0.0405253211     0.4619823081
   60      H      -5.5820358697    -0.2469381879    -0.8843014243
   61      O      -3.1666516735    -2.7130603962    -2.7533677500
   62      O       6.0068692361    -2.1356165504     1.0970821740
   63      O       0.0487167701    -0.5408540691     0.4454978868
   64      Fe     -0.2063075906     1.2903563801     0.9434683005
   65      O      -0.0711937917     0.5268846623     2.8145986967
   66      O      -2.1851273485     1.3621873295     0.9376297966
   67      O      -0.7219003075     3.3431733606     1.6120715537
   68      O       1.6858385442     1.8990174499     0.6090867348
   69      O      -0.3040505063    -1.4319617057     3.8871614202
   70      O      -0.2845023550     2.1088517994    -1.0451669969
 ----------------------------------------------------------------
 Nuclear Repulsion Energy =        6047.08184957 hartrees
 There are      164 alpha and      159 beta electrons

Z-matrix Print:
$molecule
-3 6
Fe
O  1 1.914770
C  2 1.396078 1 116.832102
C  3 1.549017 2 110.713825 1 126.328312 0
H  4 1.097457 3 106.793310 2 68.437253 0
H  4 1.099332 3 108.550962 2 -173.909460 0
C  4 1.520399 3 113.863446 2 -54.408052 0
O  7 1.243819 4 121.760685 3 -81.320689 0
N  7 1.347451 4 115.468379 3 99.787646 0
H  9 1.019274 7 121.270417 4 5.797426 0
C  9 1.454656 7 125.703687 4 171.942618 0
H  11 1.105138 9 108.699087 7 -45.064549 0
C  11 1.539643 9 113.865612 7 74.321584 0
H  13 1.098200 11 107.513348 9 -58.779539 0
H  13 1.102745 11 107.044562 9 -174.632733 0
C  13 1.528752 11 114.124300 9 63.540750 0
H  16 1.097460 13 109.109791 11 -54.174331 0
H  16 1.104831 13 109.046924 11 63.080882 0
C  16 1.537935 13 114.144641 11 -176.706427 0
H  19 1.103631 16 109.174797 13 178.760112 0
H  19 1.105344 16 109.362362 13 -65.012029 0
C  19 1.536684 16 117.037649 13 55.450065 0
H  22 1.096903 19 109.517924 16 -177.118800 0
H  22 1.102105 19 110.568566 16 -58.777055 0
N  22 1.456662 19 113.624425 16 61.850974 0
C  25 1.333660 22 128.907041 19 115.843001 0
O  26 1.271664 25 118.483100 22 -177.066774 0
O  25 1.359471 22 114.379074 19 -63.575720 0
C  26 1.506581 25 120.377640 22 1.708520 0
H  29 1.096925 26 108.188936 25 172.894515 0
H  29 1.099748 26 112.046422 25 52.464507 0
H  29 1.101781 26 110.610307 25 -68.099379 0
C  3 1.556389 2 111.576051 1 -111.201645 0
H  33 1.100512 3 108.000620 2 72.669445 0
H  33 1.102741 3 108.452618 2 -171.949866 0
C  33 1.523370 3 117.122516 2 -49.468340 0
O  36 1.241657 33 124.273250 3 -39.313284 0
N  36 1.348109 33 113.074151 3 142.193378 0
H  38 1.020612 36 121.522846 33 4.471737 0
C  38 1.451355 36 126.510333 33 175.238423 0
H  40 1.102564 38 109.511753 36 -41.374389 0
C  40 1.543543 38 113.510784 36 79.522794 0
H  42 1.100826 40 105.912845 38 173.074513 0
H  42 1.103310 40 109.559118 38 -71.649965 0
C  42 1.540866 40 114.177662 38 51.452651 0
H  45 1.104167 42 109.485326 40 151.056822 0
H  45 1.104639 42 109.647970 40 34.591701 0
C  45 1.528070 42 112.063943 40 -87.607789 0
H  48 1.096712 45 110.218097 42 57.870978 0
H  48 1.104323 45 108.798622 42 -58.736363 0
C  48 1.528710 45 115.615752 42 178.889052 0
H  51 1.098989 48 112.403135 45 68.640440 0
H  51 1.099103 48 111.706477 45 -52.809700 0
N  51 1.467739 48 108.955848 45 -169.822761 0
C  54 1.336809 51 123.372478 48 -71.843297 0
O  55 1.269579 54 119.294408 51 151.997277 0
O  54 1.371690 51 113.677212 48 79.837039 0
C  55 1.502906 54 120.595889 51 -28.171622 0
H  58 1.096747 55 113.100311 54 -26.258279 0
H  58 1.098669 55 108.111731 54 -147.692758 0
H  58 1.102565 55 109.670563 54 95.045656 0
C  11 1.558965 9 108.123188 7 -161.654139 0
O  62 1.256667 11 115.789028 9 176.728413 0
O  62 1.264005 11 116.826415 9 -4.034167 0
C  40 1.560089 38 107.817411 36 -159.226569 0
O  65 1.254954 40 115.907985 38 169.393980 0
O  65 1.265250 40 116.535878 38 -12.304488 0
C  3 1.560203 2 110.311549 1 2.300411 0
O  68 1.234802 3 121.023494 2 171.540490 0
O  68 1.303229 3 114.411538 2 -12.863022 0
$end

 -----------------------------------------------------------------------
                  END OF GEOMETRY OPTIMIZER USING LIBOPT3               
 -----------------------------------------------------------------------
 Total job time:  115574.68s(wall), 1635671.65s(cpu) 
 Tue Aug  8 16:50:48 2023

        *************************************************************
        *                                                           *
        *  Thank you very much for using Q-Chem.  Have a nice day.  *
        *                                                           *
        *************************************************************


