
Running Job 1 of 1 C_FeABO_N_ccL_3sextet_SfS_camb3lyp_augccpDVZ_pcmH2O_tddft100_2.in
qchem C_FeABO_N_ccL_3sextet_SfS_camb3lyp_augccpDVZ_pcmH2O_tddft100_2.in_1066118.0 /data/scratch/C_FeABO_N_ccL_3sextet_SfS_camb3lyp_augccpDVZ_pcmH2O_tddft100_220240309083314/ 0
/opt/qchem/6.0.1/exe/qcprog.exe_s C_FeABO_N_ccL_3sextet_SfS_camb3lyp_augccpDVZ_pcmH2O_tddft100_2.in_1066118.0 /data/scratch/C_FeABO_N_ccL_3sextet_SfS_camb3lyp_augccpDVZ_pcmH2O_tddft100_220240309083314/
                  Welcome to Q-Chem
     A Quantum Leap Into The Future Of Chemistry


 Q-Chem 6.0, Q-Chem, Inc., Pleasanton, CA (2022)

 E. Epifanovsky,  A. T. B. Gilbert,  Xintian Feng,  Joonho Lee,  Yuezhi Mao,  
 N. Mardirossian,  P. Pokhilko,  A. White,  M. Wormit,  M. P. Coons,  
 A. L. Dempwolff,  Zhengting Gan,  D. Hait,  P. R. Horn,  L. D. Jacobson,  
 I. Kaliman,  J. Kussmann,  A. W. Lange,  Ka Un Lao,  D. S. Levine,  Jie Liu,  
 S. C. McKenzie,  A. F. Morrison,  K. Nanda,  F. Plasser,  D. R. Rehn,  
 M. L. Vidal,  Zhi-Qiang You,  Ying Zhu,  B. Alam,  B. Albrecht,  
 A. Aldossary,  E. Alguire,  J. H. Andersen,  V. Athavale,  D. Barton,  
 K. Begam,  A. Behn,  N. Bellonzi,  Y. A. Bernard,  E. J. Berquist,  
 H. Burton,  A. Carreras,  K. Carter-Fenk,  Romit Chakraborty,  
 Chandrima Chakravarty,  Junhan Chen,  A. D. Chien,  K. D. Closser,  
 V. Cofer-Shabica,  L. Cunha,  S. Dasgupta,  Jia Deng,  M. de Wergifosse,  
 M. Diedenhofen,  Hainam Do,  S. Ehlert,  Po-Tung Fang,  S. Fatehi,  
 Qingguo Feng,  T. Friedhoff,  B. Ganoe,  J. Gayvert,  Qinghui Ge,  
 G. Gidofalvi,  M. Goldey,  J. Gomes,  C. Gonzalez-Espinoza,  S. Gulania,  
 A. Gunina,  J. A. Gyamfi,  M. W. D. Hanson-Heine,  P. H. P. Harbach,  
 A. W. Hauser,  M. F. Herbst,  M. Hernandez Vera,  M. Hodecker,  
 Z. C. Holden,  S. Houck,  Xunkun Huang,  Kerwin Hui,  B. C. Huynh,  
 K. Ikeda,  M. Ivanov,  Hyunjun Ji,  Zuxin Jin,  Hanjie Jiang,  B. Kaduk,  
 S. Kaehler,  R. Kang,  K. Khistyaev,  Jaehoon Kim,  Yongbin Kim,  
 P. Klunzinger,  Z. Koczor-Benda,  Joong Hoon Koh,  D. Kosenkov,  
 Saikiran Kotaru,  L. Koulias,  T. Kowalczyk,  C. M. Krauter,  K. Kue,  
 A. Kunitsa,  T. Kus,  A. Landau,  K. V. Lawler,  D. Lefrancois,  S. Lehtola,  
 Rain Li,  Shaozhi Li,  Yi-Pei Li,  Jiashu Liang,  M. Liebenthal,  
 Hung-Hsuan Lin,  You-Sheng Lin,  Fenglai Liu,  Kuan-Yu Liu,  
 M. Loipersberger,  A. Luenser,  C. Malbon,  A. Manjanath,  P. Manohar,  
 E. Mansoor,  S. F. Manzer,  Shan-Ping Mao,  A. V. Marenich,  T. Markovich,  
 S. Mason,  F. Matz,  S. A. Maurer,  P. F. McLaughlin,  M. F. S. J. Menger,  
 J.-M. Mewes,  S. A. Mewes,  P. Morgante,  Mohammad Mostafanejad,  
 J. W. Mullinax,  K. J. Oosterbaan,  G. Paran,  V. Parravicini,  
 Alexander C. Paul,  Suranjan K. Paul,  F. Pavosevic,  Zheng Pei,  S. Prager,  
 E. I. Proynov,  E. Ramos,  B. Rana,  A. E. Rask,  A. Rettig,  R. M. Richard,  
 F. Rob,  E. Rossomme,  T. Scheele,  M. Scheurer,  M. Schneider,  
 P. E. Schneider,  N. Sergueev,  S. M. Sharada,  Hengyuan Shen,  
 W. Skomorowski,  D. W. Small,  C. J. Stein,  Yingli Su,  Yu-Chuan Su,  
 E. J. Sundstrom,  Zhen Tao,  J. Thirman,  Hung-Yi Tsai,  T. Tsuchimochi,  
 N. M. Tubman,  C. Utku,  S. P. Veccham,  O. Vydrov,  J. Wenzel,  
 Jonathan Wong,  J. Witte,  A. Yamada,  Chou-Hsun Yang,  Kun Yao,  
 S. Yeganeh,  S. R. Yost,  A. Zech,  F. Zeller,  Igor Ying Zhang,  
 Xing Zhang,  Yu Zhang,  D. Zuev,  A. Aspuru-Guzik,  A. T. Bell,  
 N. A. Besley,  K. B. Bravaya,  B. R. Brooks,  D. Casanova,  Jeng-Da Chai,  
 Hsing-Ta Chen,  S. Coriani,  C. J. Cramer,  A. E. DePrince, III,  
 R. A. DiStasio Jr.,  A. Dreuw,  B. D. Dunietz,  T. R. Furlani,  
 W. A. Goddard III,  S. Grimme,  S. Hammes-Schiffer,  T. Head-Gordon,  
 W. J. Hehre,  Chao-Ping Hsu,  T.-C. Jagau,  Yousung Jung,  A. Klamt,  
 Jing Kong,  D. S. Lambrecht,  Xiangyuan Li,  WanZhen Liang,  N. J. Mayhall,  
 C. W. McCurdy,  J. B. Neaton,  T. Neudecker,  C. Ochsenfeld,  
 J. A. Parkhill,  R. Peverati,  V. A. Rassolov,  Haisheng Ren,  Yihan Shao,  
 L. V. Slipchenko,  R. P. Steele,  J. E. Subotnik,  A. J. W. Thom,  
 A. Tkatchenko,  D. G. Truhlar,  T. Van Voorhis,  Fan Wang,  
 T. A. Wesolowski,  K. B. Whaley,  H. L. Woodcock III,  P. M. Zimmerman,  
 S. Faraji,  P. M. W. Gill,  M. Head-Gordon,  J. M. Herbert,  A. I. Krylov

 Contributors to earlier versions of Q-Chem not listed above: 
 R. D. Adamson,  B. Austin,  R. Baer,  J. Baker,  G. J. O. Beran,  
 K. Brandhorst,  S. T. Brown,  E. F. C. Byrd,  Arup K. Chakraborty,  
 G. K. L. Chan,  Chun-Min Chang,  Yunqing Chen,  C.-L. Cheng,  
 Siu Hung Chien,  D. M. Chipman,  D. L. Crittenden,  H. Dachsel,  
 R. J. Doerksen,  A. D. Dutoi,  R. G. Edgar,  J. Fosso-Tande,  
 L. Fusti-Molnar,  D. Ghosh,  A. Ghysels,  A. Golubeva-Zadorozhnaya,  
 J. Gonthier,  M. S. Gordon,  S. R. Gwaltney,  G. Hawkins,  J. E. Herr,  
 A. Heyden,  S. Hirata,  E. G. Hohenstein,  G. Kedziora,  F. J. Keil,  
 C. Kelley,  Jihan Kim,  R. A. King,  R. Z. Khaliullin,  P. P. Korambath,  
 W. Kurlancheek,  A. Laurent,  A. M. Lee,  M. S. Lee,  S. V. Levchenko,  
 Ching Yeh Lin,  D. Liotard,  E. Livshits,  R. C. Lochan,  I. Lotan,  
 L. A. Martinez-Martinez,  P. E. Maslen,  N. Nair,  D. P. O'Neill,  
 D. Neuhauser,  E. Neuscamman,  C. M. Oana,  R. Olivares-Amaya,  R. Olson,  
 T. M. Perrine,  B. Peters,  P. A. Pieniazek,  A. Prociuk,  Y. M. Rhee,  
 J. Ritchie,  M. A. Rohrdanz,  E. Rosta,  N. J. Russ,  H. F. Schaefer III,  
 M. W. Schmidt,  N. E. Schultz,  S. Sharma,  N. Shenvi,  C. D. Sherrill,  
 A. C. Simmonett,  A. Sodt,  T. Stein,  D. Stuck,  K. S. Thanthiriwatte,  
 V. Vanovschi,  L. Vogt,  Tao Wang,  A. Warshel,  M. A. Watson,  
 C. F. Williams,  Q. Wu,  X. Xu,  Jun Yang,  W. Zhang,  Yan Zhao

   Please cite Q-Chem as follows:
  "Software for the frontiers of quantum chemistry:
   An overview of developments in the Q-Chem 5 package"
   J. Chem. Phys. 155, 084801 (2021)
   https://doi.org/10.1063/5.0055522 (open access)

 Q-Chem 6.0.2 for Intel X86 EM64T Linux

 Parts of Q-Chem use Armadillo 9.900.5 (Nocturnal Misbehaviour).
 http://arma.sourceforge.net/

 Q-Chem begins on Sat Mar  9 11:05:49 2024  

 Host: 
0

     Scratch files written to /data/scratch/C_FeABO_N_ccL_3sextet_SfS_camb3lyp_augccpDVZ_pcmH2O_tddft100_220240309083314//
 Dec722 |scratch|qcdevops|jenkins|workspace|build_RNUM 8907   
 Processing $rem in /opt/qchem/6.0.1/config/preferences:
 Processing $rem in /home/sgardner/.qchemrc:
 Symmetry turned off for PCM/SM12/SMD calculation

 Checking the input file for inconsistencies... 	...done.

--------------------------------------------------------------
User input:
--------------------------------------------------------------
$molecule
-3 6
C   -1.2707618    1.8236128   -1.7894232
C   -4.1298962   -1.9963951   -0.0127179
H   -4.7974824   -2.7497768    0.4389974
N   -2.8217108   -2.0728406    0.6148170
H   -2.0623225   -2.1558393   -0.0587301
C   -3.9548746   -2.3214646   -1.5266513
O   -5.0176642   -2.4851597   -2.1748766
C   -2.5590625   -2.0123775    1.9334073
O   -3.4386862   -1.8291199    2.7934853
N   -1.9753915    2.4670196   -0.8612666
C   -1.1052908   -2.2534489    2.3091249
H   -0.7193587   -3.1144519    1.7427163
H   -1.0845038   -2.4959403    3.3787593
C   -0.1340873   -1.0747334    2.0673086
C   -0.3491964    0.0737528    3.0975353
C    1.3200824   -1.5873434    2.3564147
H    1.3147302   -2.1674503    3.2898244
H    1.9703221   -0.7122857    2.4960647
C    1.9030723   -2.4673411    1.2551910
O    1.7426025   -3.7025684    1.2380636
N    2.6073670   -1.7790787    0.3419269
H    2.5933337   -0.7592319    0.4389942
C    4.9475542   -2.0081119   -0.5063286
O    5.7092355   -2.4039548   -1.4284055
C    2.3604989    3.0390670   -0.3072156
N    2.8875707    1.8188741   -0.2031070
C    4.0575187    1.2459040   -0.8701617
H    4.4673875    0.4987293   -0.1763881
H    4.8070584    2.0410064   -0.9861464
C    3.0780272    4.1076788   -1.0844937
H    2.6966634    5.0855305   -0.7637050
H    4.1664280    4.0739247   -0.9422892
C    3.7515258    0.6321045   -2.2496043
H    3.4971533    1.4660665   -2.9257053
H    4.6967290    0.2028509   -2.6262279
C    2.6153005   -0.4097384   -2.3384451
H    1.7938456   -0.1002790   -1.6790134
H    2.2056773   -0.3433819   -3.3615637
C    2.9394361   -1.8974093   -2.1117546
H    2.0164791   -2.4600545   -2.3391851
H    3.7076718   -2.2313422   -2.8266563
C    3.4291171   -2.3284107   -0.7154688
H    3.3367792   -3.4240547   -0.6537503
C   -4.2798859    1.8995737   -0.1991654
H   -4.1236674    2.0139040    0.8853297
H   -5.3283565    2.1736222   -0.4079410
C   -1.7346632    1.7012233   -3.2119460
H   -2.3956382    2.5140906   -3.5335810
H   -0.8463870    1.6745633   -3.8576156
C   -3.9865872    0.4591554   -0.6064303
H   -2.9198298    0.2631952   -0.4195921
H   -4.1445040    0.3423322   -1.6925807
C   -4.7829328   -0.6071333    0.1409314
H   -4.8336215   -0.3649691    1.2140874
H   -5.8154993   -0.6674588   -0.2395276
O   -2.7699739   -2.3466033   -1.9700561
O    5.2818001   -1.3994982    0.5465234
O   -0.2483399   -0.5596158    0.7760396
Fe    0.1789152    1.3217754    0.6180485
O   -0.1315048    1.2659549    2.6111921
O   -0.1763425    1.2671982   -1.4440808
O   -1.5103949    2.4022777    0.4201851
O    1.2368676    3.2615294    0.2417170
O   -0.6305450   -0.1559147    4.2761686
O    2.1376423    0.9187486    0.4982359
H   -2.2688269    0.7430335   -3.3258768
H    2.8700916    3.9882928   -2.1604750
C   -3.3724322    2.8865965   -0.9475094
H   -3.4448394    3.8971381   -0.5174492
H   -3.6493932    2.9440107   -2.0068329
$end

$rem
BASIS  =  gen
CIS_N_ROOTS  =  100
EXCHANGE  =  CAM-B3LYP
GUI  =  2
JOB_TYPE  =  SP
NTO_PAIRS  =  2
SCF_CONVERGENCE  =  8
SOLVENT_METHOD  =  PCM
UNRESTRICTED  =  1
BASIS GEN
PURECART 11
MEM_TOTAL  =  30000
$end

$pcm
THEORY  CPCM
$end

$solvent
DIELECTRIC  78.39
$end

$van_der_waals
26   2.44
$end

!----------------------------------------------------------------------
! Basis Set Exchange
! Basis set: aug-cc-pVDZ
!----------------------------------------------------------------------

$basis
H     0
S   4   1.00
1.301000D+01           1.968500D-02
1.962000D+00           1.379770D-01
4.446000D-01           4.781480D-01
1.220000D-01           5.012400D-01
S   1   1.00
1.220000D-01           1.000000D+00
S   1   1.00
0.0297400              1.0000000
P   1   1.00
7.270000D-01           1.0000000
P   1   1.00
0.1410000              1.0000000
****
C     0
S   9   1.00
6.665000D+03           6.920000D-04
1.000000D+03           5.329000D-03
2.280000D+02           2.707700D-02
6.471000D+01           1.017180D-01
2.106000D+01           2.747400D-01
7.495000D+00           4.485640D-01
2.797000D+00           2.850740D-01
5.215000D-01           1.520400D-02
1.596000D-01          -3.191000D-03
S   9   1.00
6.665000D+03          -1.460000D-04
1.000000D+03          -1.154000D-03
2.280000D+02          -5.725000D-03
6.471000D+01          -2.331200D-02
2.106000D+01          -6.395500D-02
7.495000D+00          -1.499810D-01
2.797000D+00          -1.272620D-01
5.215000D-01           5.445290D-01
1.596000D-01           5.804960D-01
S   1   1.00
1.596000D-01           1.000000D+00
S   1   1.00
0.0469000              1.0000000
P   4   1.00
9.439000D+00           3.810900D-02
2.002000D+00           2.094800D-01
5.456000D-01           5.085570D-01
1.517000D-01           4.688420D-01
P   1   1.00
1.517000D-01           1.000000D+00
P   1   1.00
0.0404100              1.0000000
D   1   1.00
5.500000D-01           1.0000000
D   1   1.00
0.1510000              1.0000000
****
N     0
S   9   1.00
9.046000D+03           7.000000D-04
1.357000D+03           5.389000D-03
3.093000D+02           2.740600D-02
8.773000D+01           1.032070D-01
2.856000D+01           2.787230D-01
1.021000D+01           4.485400D-01
3.838000D+00           2.782380D-01
7.466000D-01           1.544000D-02
2.248000D-01          -2.864000D-03
S   9   1.00
9.046000D+03          -1.530000D-04
1.357000D+03          -1.208000D-03
3.093000D+02          -5.992000D-03
8.773000D+01          -2.454400D-02
2.856000D+01          -6.745900D-02
1.021000D+01          -1.580780D-01
3.838000D+00          -1.218310D-01
7.466000D-01           5.490030D-01
2.248000D-01           5.788150D-01
S   1   1.00
2.248000D-01           1.000000D+00
S   1   1.00
0.0612400              1.0000000
P   4   1.00
1.355000D+01           3.991900D-02
2.917000D+00           2.171690D-01
7.973000D-01           5.103190D-01
2.185000D-01           4.622140D-01
P   1   1.00
2.185000D-01           1.000000D+00
P   1   1.00
0.0561100              1.0000000
D   1   1.00
8.170000D-01           1.0000000
D   1   1.00
0.2300000              1.0000000
****
O     0
S   9   1.00
1.172000D+04           7.100000D-04
1.759000D+03           5.470000D-03
4.008000D+02           2.783700D-02
1.137000D+02           1.048000D-01
3.703000D+01           2.830620D-01
1.327000D+01           4.487190D-01
5.025000D+00           2.709520D-01
1.013000D+00           1.545800D-02
3.023000D-01          -2.585000D-03
S   9   1.00
1.172000D+04          -1.600000D-04
1.759000D+03          -1.263000D-03
4.008000D+02          -6.267000D-03
1.137000D+02          -2.571600D-02
3.703000D+01          -7.092400D-02
1.327000D+01          -1.654110D-01
5.025000D+00          -1.169550D-01
1.013000D+00           5.573680D-01
3.023000D-01           5.727590D-01
S   1   1.00
3.023000D-01           1.000000D+00
S   1   1.00
0.0789600              1.0000000
P   4   1.00
1.770000D+01           4.301800D-02
3.854000D+00           2.289130D-01
1.046000D+00           5.087280D-01
2.753000D-01           4.605310D-01
P   1   1.00
2.753000D-01           1.000000D+00
P   1   1.00
0.0685600              1.0000000
D   1   1.00
1.185000D+00           1.0000000
D   1   1.00
0.3320000              1.0000000
****
Fe     0
S   20   1.00
4.316265D+06           8.048803D-06
6.463424D+05           6.258306D-05
1.470897D+05           3.290239D-04
4.166152D+04           1.387355D-03
1.359077D+04           5.023256D-03
4.905750D+03           1.610140D-02
1.912746D+03           4.590034D-02
7.926043D+02           1.136154D-01
3.448065D+02           2.283869D-01
1.558999D+02           3.221159D-01
7.223091D+01           2.383661D-01
3.272506D+01           7.404667D-02
1.566762D+01           9.214197D-02
7.503483D+00           9.339790D-02
3.312223D+00           1.573965D-02
1.558471D+00          -4.186682D-04
6.839140D-01           5.376318D-05
1.467570D-01          -3.816654D-05
7.058300D-02           4.319603D-05
3.144900D-02          -3.401019D-06
S   20   1.00
4.316265D+06          -4.155954D-06
6.463424D+05          -3.231401D-05
1.470897D+05          -1.699525D-04
4.166152D+04          -7.171369D-04
1.359077D+04          -2.603625D-03
4.905750D+03          -8.399109D-03
1.912746D+03          -2.434109D-02
7.926043D+02          -6.251948D-02
3.448065D+02          -1.365929D-01
1.558999D+02          -2.312707D-01
7.223091D+01          -2.383734D-01
3.272506D+01           3.123837D-02
1.566762D+01           5.086818D-01
7.503483D+00           4.987695D-01
3.312223D+00           9.033552D-02
1.558471D+00          -6.005337D-03
6.839140D-01           2.312454D-04
1.467570D-01          -5.643680D-04
7.058300D-02           4.992260D-04
3.144900D-02          -1.015293D-04
S   20   1.00
4.316265D+06           9.532178D-07
6.463424D+05           7.414605D-06
1.470897D+05           3.898393D-05
4.166152D+04           1.647152D-04
1.359077D+04           5.985980D-04
4.905750D+03           1.942390D-03
1.912746D+03           5.687237D-03
7.926043D+02           1.501329D-02
3.448065D+02           3.452455D-02
1.558999D+02           6.495820D-02
7.223091D+01           7.716194D-02
3.272506D+01          -1.873411D-02
1.566762D+01          -3.009185D-01
7.503483D+00          -4.554661D-01
3.312223D+00           1.286463D-01
1.558471D+00           7.183316D-01
6.839140D-01           4.051743D-01
1.467570D-01           2.168227D-02
7.058300D-02          -8.343566D-03
3.144900D-02           3.658979D-03
S   20   1.00
4.316265D+06          -2.063008D-07
6.463424D+05          -1.604169D-06
1.470897D+05          -8.438437D-06
4.166152D+04          -3.563151D-05
1.359077D+04          -1.295998D-04
4.905750D+03          -4.201534D-04
1.912746D+03          -1.231954D-03
7.926043D+02          -3.248922D-03
3.448065D+02          -7.493717D-03
1.558999D+02          -1.410102D-02
7.223091D+01          -1.691600D-02
3.272506D+01           4.218996D-03
1.566762D+01           6.833810D-02
7.503483D+00           1.098201D-01
3.312223D+00          -4.009005D-02
1.558471D+00          -2.174739D-01
6.839140D-01          -2.465135D-01
1.467570D-01           2.731435D-01
7.058300D-02           5.748321D-01
3.144900D-02           3.012713D-01
S   20   1.00
4.316265D+06          -4.009367D-07
6.463424D+05          -3.189255D-06
1.470897D+05          -1.623079D-05
4.166152D+04          -7.157920D-05
1.359077D+04          -2.463958D-04
4.905750D+03          -8.544907D-04
1.912746D+03          -2.307593D-03
7.926043D+02          -6.728292D-03
3.448065D+02          -1.366165D-02
1.558999D+02          -3.062240D-02
7.223091D+01          -2.631137D-02
3.272506D+01          -9.760183D-03
1.566762D+01           1.801906D-01
7.503483D+00           1.529634D-01
3.312223D+00           5.505413D-02
1.558471D+00          -9.551364D-01
6.839140D-01           2.586813D-01
1.467570D-01           1.834049D+00
7.058300D-02          -9.333240D-01
3.144900D-02          -6.981605D-01
S   1   1.00
3.144900D-02           1.000000D+00
S   1   1.00
1.401000D-02           1.000000D+00
P   16   1.00
1.774569D+04           4.100000D-05
4.200721D+03           3.690000D-04
1.364429D+03           2.129000D-03
5.220806D+02           9.369000D-03
2.214595D+02           3.309700D-02
1.009096D+02           9.443100D-02
4.840115D+01           2.080770D-01
2.398536D+01           3.323330D-01
1.218250D+01           3.329870D-01
6.242298D+00           1.568430D-01
3.110944D+00           2.154900D-02
1.509958D+00          -2.095000D-03
7.108450D-01          -1.739000D-03
2.731900D-01          -3.000000D-04
1.042330D-01           2.900000D-05
3.829100D-02          -1.100000D-05
P   16   1.00
1.774569D+04          -1.500000D-05
4.200721D+03          -1.300000D-04
1.364429D+03          -7.510000D-04
5.220806D+02          -3.329000D-03
2.214595D+02          -1.191200D-02
1.009096D+02          -3.493300D-02
4.840115D+01          -7.998900D-02
2.398536D+01          -1.346360D-01
1.218250D+01          -1.385980D-01
6.242298D+00           3.027800D-02
3.110944D+00           3.332160D-01
1.509958D+00           4.561530D-01
7.108450D-01           2.850510D-01
2.731900D-01           4.614400D-02
1.042330D-01          -3.249000D-03
3.829100D-02           1.357000D-03
P   16   1.00
1.774569D+04           5.000000D-06
4.200721D+03           4.200000D-05
1.364429D+03           2.410000D-04
5.220806D+02           1.085000D-03
2.214595D+02           3.831000D-03
1.009096D+02           1.142300D-02
4.840115D+01           2.579200D-02
2.398536D+01           4.481800D-02
1.218250D+01           4.459800D-02
6.242298D+00          -1.117700D-02
3.110944D+00          -1.381340D-01
1.509958D+00          -1.882850D-01
7.108450D-01          -1.073990D-01
2.731900D-01           4.448630D-01
1.042330D-01           6.402390D-01
3.829100D-02           6.445700D-02
P   16   1.00
1.774569D+04           3.000000D-06
4.200721D+03           2.900000D-05
1.364429D+03           1.650000D-04
5.220806D+02           7.340000D-04
2.214595D+02           2.626000D-03
1.009096D+02           7.725000D-03
4.840115D+01           1.773300D-02
2.398536D+01           3.005500D-02
1.218250D+01           3.109400D-02
6.242298D+00          -1.004800D-02
3.110944D+00          -8.830600D-02
1.509958D+00          -1.298240D-01
7.108450D-01          -7.693700D-02
2.731900D-01           2.126610D-01
1.042330D-01           5.730610D-01
3.829100D-02           3.696510D-01
P   1   1.00
3.829100D-02           1.000000D+00
P   1   1.00
1.407000D-02           1.000000D+00
D   8   1.00
1.133440D+02           3.530000D-03
3.364140D+01           2.578400D-02
1.233100D+01           9.911900D-02
4.994780D+00           2.390730D-01
2.072800D+00           3.571990D-01
8.307530D-01           3.621880D-01
3.091780D-01           2.364610D-01
1.001300D-01           6.011800D-02
D   8   1.00
1.133440D+02          -3.890000D-03
3.364140D+01          -2.844200D-02
1.233100D+01          -1.124290D-01
4.994780D+00          -2.742570D-01
2.072800D+00          -3.155460D-01
8.307530D-01           5.710900D-02
3.091780D-01           5.636040D-01
1.001300D-01           3.846370D-01
D   1   1.00
1.001300D-01           1.000000D+00
D   1   1.00
3.243000D-02           1.000000D+00
F   2   1.00
3.224300D+00           4.222490D-01
7.758000D-01           7.714680D-01
F   1   1.00
2.749000D-01           1.000000D+00
****
$end


--------------------------------------------------------------
 ----------------------------------------------------------------
             Standard Nuclear Orientation (Angstroms)
    I     Atom           X                Y                Z
 ----------------------------------------------------------------
    1      C      -1.2707618000     1.8236128000    -1.7894232000
    2      C      -4.1298962000    -1.9963951000    -0.0127179000
    3      H      -4.7974824000    -2.7497768000     0.4389974000
    4      N      -2.8217108000    -2.0728406000     0.6148170000
    5      H      -2.0623225000    -2.1558393000    -0.0587301000
    6      C      -3.9548746000    -2.3214646000    -1.5266513000
    7      O      -5.0176642000    -2.4851597000    -2.1748766000
    8      C      -2.5590625000    -2.0123775000     1.9334073000
    9      O      -3.4386862000    -1.8291199000     2.7934853000
   10      N      -1.9753915000     2.4670196000    -0.8612666000
   11      C      -1.1052908000    -2.2534489000     2.3091249000
   12      H      -0.7193587000    -3.1144519000     1.7427163000
   13      H      -1.0845038000    -2.4959403000     3.3787593000
   14      C      -0.1340873000    -1.0747334000     2.0673086000
   15      C      -0.3491964000     0.0737528000     3.0975353000
   16      C       1.3200824000    -1.5873434000     2.3564147000
   17      H       1.3147302000    -2.1674503000     3.2898244000
   18      H       1.9703221000    -0.7122857000     2.4960647000
   19      C       1.9030723000    -2.4673411000     1.2551910000
   20      O       1.7426025000    -3.7025684000     1.2380636000
   21      N       2.6073670000    -1.7790787000     0.3419269000
   22      H       2.5933337000    -0.7592319000     0.4389942000
   23      C       4.9475542000    -2.0081119000    -0.5063286000
   24      O       5.7092355000    -2.4039548000    -1.4284055000
   25      C       2.3604989000     3.0390670000    -0.3072156000
   26      N       2.8875707000     1.8188741000    -0.2031070000
   27      C       4.0575187000     1.2459040000    -0.8701617000
   28      H       4.4673875000     0.4987293000    -0.1763881000
   29      H       4.8070584000     2.0410064000    -0.9861464000
   30      C       3.0780272000     4.1076788000    -1.0844937000
   31      H       2.6966634000     5.0855305000    -0.7637050000
   32      H       4.1664280000     4.0739247000    -0.9422892000
   33      C       3.7515258000     0.6321045000    -2.2496043000
   34      H       3.4971533000     1.4660665000    -2.9257053000
   35      H       4.6967290000     0.2028509000    -2.6262279000
   36      C       2.6153005000    -0.4097384000    -2.3384451000
   37      H       1.7938456000    -0.1002790000    -1.6790134000
   38      H       2.2056773000    -0.3433819000    -3.3615637000
   39      C       2.9394361000    -1.8974093000    -2.1117546000
   40      H       2.0164791000    -2.4600545000    -2.3391851000
   41      H       3.7076718000    -2.2313422000    -2.8266563000
   42      C       3.4291171000    -2.3284107000    -0.7154688000
   43      H       3.3367792000    -3.4240547000    -0.6537503000
   44      C      -4.2798859000     1.8995737000    -0.1991654000
   45      H      -4.1236674000     2.0139040000     0.8853297000
   46      H      -5.3283565000     2.1736222000    -0.4079410000
   47      C      -1.7346632000     1.7012233000    -3.2119460000
   48      H      -2.3956382000     2.5140906000    -3.5335810000
   49      H      -0.8463870000     1.6745633000    -3.8576156000
   50      C      -3.9865872000     0.4591554000    -0.6064303000
   51      H      -2.9198298000     0.2631952000    -0.4195921000
   52      H      -4.1445040000     0.3423322000    -1.6925807000
   53      C      -4.7829328000    -0.6071333000     0.1409314000
   54      H      -4.8336215000    -0.3649691000     1.2140874000
   55      H      -5.8154993000    -0.6674588000    -0.2395276000
   56      O      -2.7699739000    -2.3466033000    -1.9700561000
   57      O       5.2818001000    -1.3994982000     0.5465234000
   58      O      -0.2483399000    -0.5596158000     0.7760396000
   59      Fe      0.1789152000     1.3217754000     0.6180485000
   60      O      -0.1315048000     1.2659549000     2.6111921000
   61      O      -0.1763425000     1.2671982000    -1.4440808000
   62      O      -1.5103949000     2.4022777000     0.4201851000
   63      O       1.2368676000     3.2615294000     0.2417170000
   64      O      -0.6305450000    -0.1559147000     4.2761686000
   65      O       2.1376423000     0.9187486000     0.4982359000
   66      H      -2.2688269000     0.7430335000    -3.3258768000
   67      H       2.8700916000     3.9882928000    -2.1604750000
   68      C      -3.3724322000     2.8865965000    -0.9475094000
   69      H      -3.4448394000     3.8971381000    -0.5174492000
   70      H      -3.6493932000     2.9440107000    -2.0068329000
 ----------------------------------------------------------------
 Nuclear Repulsion Energy =        6202.34095411 hartrees
 There are      164 alpha and      159 beta electrons
 Requested basis set is non-standard
 There are 520 shells and 1226 basis functions

 Total QAlloc Memory Limit  30000 MB
 Mega-Array Size       188 MB
 MEM_STATIC part       192 MB

 Using C-PCM dielectric factor f(eps) = (eps-1)/eps = 0.987243
No default van der Waals radius is available for Z = 26
	Found R = 2.4400 A in the $van_der_waals section
 Discretize the solute cavity surface with Lebedev spheres
	Using 110 Lebedev grid points for each H atom
	Using 194 Lebedev grid points for other atoms
	Atomic van der Waals radii (Bondi set) will be scaled by 1.20
 Using smooth SwiG surface discretization
 Remove points where switching function is < 1.0e-08
 Keep 4062 surface tesserae and discard 6998 interior tesserae
 Molecular Surface Area = 524.970 Angst**2

 A cutoff of  1.0D-12 yielded 122185 shell pairs
 There are    649105 function pairs (    739899 Cartesian)
 Smallest overlap matrix eigenvalue = 1.02E-06

 Scale SEOQF with 1.000000e-02/1.000000e-02/1.000000e-01

 Standard Electronic Orientation quadrupole field applied
 Nucleus-field energy     =    -0.0000000801 hartrees
 ================ Generating on-the-fly SAD Guess ================
 Attempting to make child job directory: /data/scratch/C_FeABO_N_ccL_3sextet_SfS_camb3lyp_augccpDVZ_pcmH2O_tddft100_220240309083314//Frg1/
 Attempting to make child job directory: /data/scratch/C_FeABO_N_ccL_3sextet_SfS_camb3lyp_augccpDVZ_pcmH2O_tddft100_220240309083314//Frg2/
 Attempting to make child job directory: /data/scratch/C_FeABO_N_ccL_3sextet_SfS_camb3lyp_augccpDVZ_pcmH2O_tddft100_220240309083314//Frg3/
 Attempting to make child job directory: /data/scratch/C_FeABO_N_ccL_3sextet_SfS_camb3lyp_augccpDVZ_pcmH2O_tddft100_220240309083314//Frg4/
 Attempting to make child job directory: /data/scratch/C_FeABO_N_ccL_3sextet_SfS_camb3lyp_augccpDVZ_pcmH2O_tddft100_220240309083314//Frg5/
 Creating input file /data/scratch/C_FeABO_N_ccL_3sextet_SfS_camb3lyp_augccpDVZ_pcmH2O_tddft100_220240309083314/Frg1.input
 using default PutDataFrgm: nothing
 calling putenv with: QCSCRATCH=/data/scratch/C_FeABO_N_ccL_3sextet_SfS_camb3lyp_augccpDVZ_pcmH2O_tddft100_220240309083314/ 
 Spawning Job For Fragment 0
 Done Job For Fragment 0
 calling putenv with: QCSCRATCH=/data/scratch 
 calling putenv with: QCTHREADS=20 
 Creating input file /data/scratch/C_FeABO_N_ccL_3sextet_SfS_camb3lyp_augccpDVZ_pcmH2O_tddft100_220240309083314/Frg2.input
 using default PutDataFrgm: nothing
 calling putenv with: QCSCRATCH=/data/scratch/C_FeABO_N_ccL_3sextet_SfS_camb3lyp_augccpDVZ_pcmH2O_tddft100_220240309083314/ 
 Spawning Job For Fragment 1
 Done Job For Fragment 1
 calling putenv with: QCSCRATCH=/data/scratch 
 calling putenv with: QCTHREADS=20 
 Creating input file /data/scratch/C_FeABO_N_ccL_3sextet_SfS_camb3lyp_augccpDVZ_pcmH2O_tddft100_220240309083314/Frg3.input
 using default PutDataFrgm: nothing
 calling putenv with: QCSCRATCH=/data/scratch/C_FeABO_N_ccL_3sextet_SfS_camb3lyp_augccpDVZ_pcmH2O_tddft100_220240309083314/ 
 Spawning Job For Fragment 2
 Done Job For Fragment 2
 calling putenv with: QCSCRATCH=/data/scratch 
 calling putenv with: QCTHREADS=20 
 Creating input file /data/scratch/C_FeABO_N_ccL_3sextet_SfS_camb3lyp_augccpDVZ_pcmH2O_tddft100_220240309083314/Frg4.input
 using default PutDataFrgm: nothing
 calling putenv with: QCSCRATCH=/data/scratch/C_FeABO_N_ccL_3sextet_SfS_camb3lyp_augccpDVZ_pcmH2O_tddft100_220240309083314/ 
 Spawning Job For Fragment 3
 Done Job For Fragment 3
 calling putenv with: QCSCRATCH=/data/scratch 
 calling putenv with: QCTHREADS=20 
 Creating input file /data/scratch/C_FeABO_N_ccL_3sextet_SfS_camb3lyp_augccpDVZ_pcmH2O_tddft100_220240309083314/Frg5.input
 using default PutDataFrgm: nothing
 calling putenv with: QCSCRATCH=/data/scratch/C_FeABO_N_ccL_3sextet_SfS_camb3lyp_augccpDVZ_pcmH2O_tddft100_220240309083314/ 
 Spawning Job For Fragment 4
 Done Job For Fragment 4
 calling putenv with: QCSCRATCH=/data/scratch 
 calling putenv with: QCTHREADS=20 
 Time for running child jobs:  CPU 0.03 s  wall 113.44 s
 ============= Method Specific SAD Guess Constructed =============
 Guess from on-the-fly superposition of atomic densities
 Warning: Energy on first SCF cycle will be non-variational

 -----------------------------------------------------------------------
  General SCF calculation program by
  Eric Jon Sundstrom, Paul Horn, Yuezhi Mao, Dmitri Zuev, Alec White,
  David Stuck, Shaama M.S., Shane Yost, Joonho Lee, David Small,
  Daniel Levine, Susi Lehtola, Hugh Burton, Evgeny Epifanovsky,
  Bang C. Huynh
 -----------------------------------------------------------------------
 Exchange:     0.1900 Hartree-Fock + 0.3500 B88 + 0.4600 muB88 + LR-HF
 Correlation:  0.1900 VWN5 + 0.8100 LYP
 Using SG-1 standard quadrature grid
 using 20 threads for integral computing
 -------------------------------------------------------
 OpenMP Integral computing Module                
 Release: version 1.0, May 2013, Q-Chem Inc. Pittsburgh 
 -------------------------------------------------------
 C-PCM solvent model [f = (eps-1)/eps], solve by matrix inversion
 A unrestricted SCF calculation will be
 performed using DIIS
 SCF converges when DIIS error is below 1.0e-08
 ---------------------------------------
  Cycle       Energy         DIIS error
 ---------------------------------------
    1   -3337.9236381314      1.01e-02  
    2   -3315.9566385047      1.35e-03  
    3   -3315.2311312013      1.97e-03  
    4   -3317.0897075288      5.04e-04  
    5   -3317.1932660083      1.77e-04  
    6   -3317.2103213057      8.72e-05  
    7   -3317.2156257607      2.79e-05  
    8   -3317.2165595944      1.62e-05  
    9   -3317.2169237452      6.58e-06  
   10   -3317.2170318427      2.97e-06  
   11   -3317.2170666673      1.86e-06  
   12   -3317.2170808865      1.06e-06  
   13   -3317.2170848848      5.61e-07  
   14   -3317.2170859899      2.75e-07  
   15   -3317.2170861969      1.35e-07  
   16   -3317.2170862467      6.32e-08  
   17   -3317.2170862590      3.83e-08  
   18   -3317.2170862642      2.15e-08  
   19   -3317.2170862694      1.06e-08  
   20   -3317.2170862720      5.16e-09  Convergence criterion met
 ---------------------------------------
 SCF time:   CPU 368068.52s  wall 21140.00s 
<S^2> =          8.757589272

************** Final PCM Free Energy Summary **************
 G_electrostatic  =      -0.53392126 hartree =    -335.04065010 kcal/mol
 G_cavitation     =       0.00000000 hartree =       0.00000000 kcal/mol
 G_dispersion     =       0.00000000 hartree =       0.00000000 kcal/mol
 G_repulsion      =       0.00000000 hartree =       0.00000000 kcal/mol
 --------------------------------------------------
 Non-electrostatic Free Energy =       0.00000000 hartree =       0.00000000 kcal/mol
 Total                         =      -0.53392126 hartree =    -335.04065010 kcal/mol
 --------------------------------------------------
 SCF Energy (H0 + V/2)                       =   -3317.21708627 
 Solute Internal Energy (H0)                 =   -3316.68316501 
 Total Free Energy (H0 + V/2 + non-elec)     =   -3317.21708627 hartree
                                             = -2081585.13899873 kcal/mol
***********************************************************

 SCF   energy in the final basis set =    -3317.2170862720
 Total energy in the final basis set =    -3317.2170862720
 
 MAX_CIS_SUBSPACE fits in available memory
 Direct TDDFT/TDA calculation will be performed
 Exchange:     0.1900 Hartree-Fock + 0.3500 B88 + 0.4600 muB88 + LR-HF
 Correlation:  0.1900 VWN5 + 0.8100 LYP
 Using SG-1 standard quadrature grid
 Adding PCM contribution to the XC response (LR-PCM)
 CIS energy converged when residual is below 10e- 6
 ---------------------------------------------------
 Iter    Rts Conv    Rts Left    Ttl Dev     Max Dev
 ---------------------------------------------------
   1         0         100      0.004926    0.000246
   2         0         100      0.005382    0.000123
   3         0         100      0.004918    0.000117
   4         0         100      0.003377    0.000081
   5         9          91      0.002377    0.000077
   6        17          83      0.001573    0.000068
   7        29          71      0.000959    0.000053
   8        46          54      0.000488    0.000033
   9        54          46      0.000239    0.000017
  10        76          24      0.000093    0.000010
  11        93           7      0.000037    0.000004
  12        99           1      0.000023    0.000001
  13       100           0      0.000021    0.000001    Roots Converged
 ---------------------------------------------------
 
 ---------------------------------------------------
         TDDFT/TDA Excitation Energies              
 ---------------------------------------------------

 Excited state   1: excitation energy (eV) =    2.7219
 Total energy for state  1:                 -3317.11705888 au
    <S**2>     :  8.8073
    Trans. Mom.: -0.2085 X  -0.0024 Y   0.0279 Z
    Strength   :     0.0029510055
    D(  158) --> S(    2) amplitude = -0.4572 beta
    D(  159) --> S(    1) amplitude =  0.4491 beta
    D(  159) --> S(    2) amplitude =  0.7274 beta

 Excited state   2: excitation energy (eV) =    2.7803
 Total energy for state  2:                 -3317.11491123 au
    <S**2>     :  8.7979
    Trans. Mom.:  0.2771 X   0.0729 Y  -0.0457 Z
    Strength   :     0.0057345980
    D(  158) --> S(    1) amplitude =  0.4503 beta
    D(  158) --> S(    2) amplitude =  0.4719 beta
    D(  159) --> S(    1) amplitude = -0.3753 beta
    D(  159) --> S(    2) amplitude =  0.6056 beta

 Excited state   3: excitation energy (eV) =    2.7866
 Total energy for state  3:                 -3317.11468070 au
    <S**2>     :  8.8046
    Trans. Mom.: -0.3174 X   0.0978 Y  -0.0086 Z
    Strength   :     0.0075348517
    D(  158) --> S(    1) amplitude =  0.2756 beta
    D(  158) --> S(    2) amplitude =  0.4863 beta
    D(  159) --> S(    1) amplitude =  0.7778 beta

 Excited state   4: excitation energy (eV) =    2.8937
 Total energy for state  4:                 -3317.11074604 au
    <S**2>     :  8.7882
    Trans. Mom.: -0.6128 X  -0.2320 Y   0.1677 Z
    Strength   :     0.0324323259
    D(  158) --> S(    1) amplitude =  0.7515 beta
    D(  158) --> S(    2) amplitude = -0.4796 beta
    D(  159) --> S(    2) amplitude = -0.1774 beta
    D(  159) --> S(    3) amplitude =  0.2450 beta

 Excited state   5: excitation energy (eV) =    3.0560
 Total energy for state  5:                 -3317.10478078 au
    <S**2>     :  8.7797
    Trans. Mom.:  0.1740 X  -0.4415 Y   0.3024 Z
    Strength   :     0.0237085176
    D(  158) --> S(    3) amplitude =  0.7711 beta
    D(  159) --> S(    3) amplitude = -0.5631 beta

 Excited state   6: excitation energy (eV) =    3.0955
 Total energy for state  6:                 -3317.10332950 au
    <S**2>     :  8.7803
    Trans. Mom.: -0.0498 X   0.2182 Y  -0.2178 Z
    Strength   :     0.0073988512
    D(  158) --> S(    1) amplitude = -0.1713 beta
    D(  158) --> S(    3) amplitude =  0.5410 beta
    D(  159) --> S(    3) amplitude =  0.7397 beta

 Excited state   7: excitation energy (eV) =    3.2802
 Total energy for state  7:                 -3317.09654297 au
    <S**2>     :  8.7964
    Trans. Mom.:  0.0138 X  -0.2023 Y   0.1022 Z
    Strength   :     0.0041441790
    D(  149) --> S(    1) amplitude =  0.1762 beta
    D(  150) --> S(    1) amplitude =  0.2392 beta
    D(  150) --> S(    2) amplitude =  0.1908 beta
    D(  154) --> S(    1) amplitude =  0.1931 beta
    D(  156) --> S(    1) amplitude =  0.6277 beta
    D(  156) --> S(    2) amplitude =  0.3896 beta
    D(  157) --> S(    1) amplitude = -0.2039 beta

 Excited state   8: excitation energy (eV) =    3.4239
 Total energy for state  8:                 -3317.09125985 au
    <S**2>     :  8.7905
    Trans. Mom.:  0.1679 X   0.0969 Y   0.0218 Z
    Strength   :     0.0031917259
    D(  149) --> S(    2) amplitude =  0.1584 beta
    D(  150) --> S(    2) amplitude =  0.2306 beta
    D(  154) --> S(    2) amplitude =  0.1829 beta
    D(  156) --> S(    1) amplitude = -0.4422 beta
    D(  156) --> S(    2) amplitude =  0.6046 beta
    D(  156) --> S(    3) amplitude =  0.1764 beta
    D(  157) --> S(    2) amplitude = -0.1926 beta

 Excited state   9: excitation energy (eV) =    3.5631
 Total energy for state  9:                 -3317.08614306 au
    <S**2>     :  8.7797
    Trans. Mom.:  0.0052 X   0.0581 Y   0.0100 Z
    Strength   :     0.0003057459
    D(  149) --> S(    3) amplitude =  0.1842 beta
    D(  150) --> S(    1) amplitude = -0.2148 beta
    D(  150) --> S(    2) amplitude = -0.2519 beta
    D(  150) --> S(    3) amplitude =  0.1507 beta
    D(  152) --> S(    1) amplitude =  0.1511 beta
    D(  152) --> S(    2) amplitude =  0.1760 beta
    D(  154) --> S(    3) amplitude =  0.2060 beta
    D(  156) --> S(    3) amplitude =  0.5857 beta
    D(  157) --> S(    3) amplitude = -0.1962 beta

 Excited state  10: excitation energy (eV) =    3.6518
 Total energy for state 10:                 -3317.08288545 au
    <S**2>     :  8.7871
    Trans. Mom.: -0.0516 X   0.1732 Y   0.0006 Z
    Strength   :     0.0029237363
    D(  139) --> S(    2) amplitude = -0.1503 beta
    D(  149) --> S(    2) amplitude = -0.1663 beta
    D(  149) --> S(    3) amplitude =  0.1973 beta
    D(  150) --> S(    1) amplitude =  0.2567 beta
    D(  150) --> S(    2) amplitude =  0.2679 beta
    D(  152) --> S(    1) amplitude = -0.1856 beta
    D(  152) --> S(    2) amplitude = -0.1924 beta
    D(  154) --> S(    2) amplitude = -0.1963 beta
    D(  154) --> S(    3) amplitude =  0.2341 beta
    D(  156) --> S(    2) amplitude = -0.1504 beta
    D(  156) --> S(    3) amplitude =  0.3912 beta
    D(  157) --> S(    3) amplitude = -0.1602 beta

 Excited state  11: excitation energy (eV) =    3.8282
 Total energy for state 11:                 -3317.07640172 au
    <S**2>     :  8.7926
    Trans. Mom.: -0.1002 X  -0.0108 Y   0.0411 Z
    Strength   :     0.0011109799
    D(  147) --> S(    1) amplitude =  0.1838 beta
    D(  147) --> S(    2) amplitude = -0.1555 beta
    D(  149) --> S(    1) amplitude = -0.1843 beta
    D(  149) --> S(    2) amplitude =  0.1727 beta
    D(  150) --> S(    1) amplitude =  0.4168 beta
    D(  150) --> S(    2) amplitude = -0.3475 beta
    D(  151) --> S(    1) amplitude = -0.1708 beta
    D(  152) --> S(    1) amplitude = -0.2936 beta
    D(  152) --> S(    2) amplitude =  0.2468 beta
    D(  154) --> S(    1) amplitude = -0.2243 beta
    D(  154) --> S(    2) amplitude =  0.2076 beta

 Excited state  12: excitation energy (eV) =    3.8609
 Total energy for state 12:                 -3317.07520260 au
    <S**2>     :  8.9631
    Trans. Mom.:  0.0572 X   0.1569 Y  -0.0932 Z
    Strength   :     0.0034578696
    D(  158) --> S(    4) amplitude =  0.5572 beta
    D(  158) --> S(    5) amplitude = -0.2142 beta
    D(  158) --> V(    1) amplitude =  0.2533 beta
    D(  159) --> S(    4) amplitude =  0.3037 beta
    D(  159) --> V(    1) amplitude =  0.5083 beta

 Excited state  13: excitation energy (eV) =    3.9075
 Total energy for state 13:                 -3317.07348871 au
    <S**2>     :  8.8421
    Trans. Mom.: -0.1871 X   0.1850 Y  -0.1398 Z
    Strength   :     0.0084970332
    D(  150) --> S(    3) amplitude =  0.2275 beta
    D(  152) --> S(    3) amplitude = -0.1576 beta
    D(  158) --> S(    4) amplitude = -0.4863 beta
    D(  158) --> V(    1) amplitude = -0.3326 beta
    D(  159) --> S(    4) amplitude =  0.1853 beta
    D(  159) --> V(    1) amplitude =  0.4957 beta

 Excited state  14: excitation energy (eV) =    3.9280
 Total energy for state 14:                 -3317.07273489 au
    <S**2>     :  8.7994
    Trans. Mom.:  0.0491 X   0.1897 Y  -0.0341 Z
    Strength   :     0.0038079465
    D(  150) --> S(    3) amplitude =  0.2826 beta
    D(  152) --> S(    3) amplitude = -0.1948 beta
    D(  156) --> S(    4) amplitude =  0.1597 beta
    D(  158) --> S(    5) amplitude =  0.2565 beta
    D(  158) --> V(    1) amplitude =  0.4106 beta
    D(  159) --> S(    4) amplitude =  0.3286 beta
    D(  159) --> S(    5) amplitude = -0.3817 beta
    D(  159) --> V(    1) amplitude = -0.3439 beta

 Excited state  15: excitation energy (eV) =    4.0411
 Total energy for state 15:                 -3317.06857755 au
    <S**2>     :  8.8169
    Trans. Mom.: -0.1780 X  -0.2010 Y  -0.0826 Z
    Strength   :     0.0078138444
    D(  147) --> S(    3) amplitude = -0.1556 beta
    D(  150) --> S(    3) amplitude = -0.3711 beta
    D(  152) --> S(    3) amplitude =  0.2540 beta
    D(  158) --> S(    4) amplitude = -0.2355 beta
    D(  158) --> S(    5) amplitude =  0.2342 beta
    D(  158) --> V(    1) amplitude =  0.1587 beta
    D(  159) --> S(    4) amplitude =  0.5087 beta
    D(  159) --> S(    5) amplitude = -0.2332 beta
    D(  159) --> V(    1) amplitude =  0.1649 beta

 Excited state  16: excitation energy (eV) =    4.0981
 Total energy for state 16:                 -3317.06648503 au
    <S**2>     :  8.7831
    Trans. Mom.:  0.2166 X   0.0645 Y  -0.0585 Z
    Strength   :     0.0054740945
    D(  158) --> S(    5) amplitude =  0.3790 beta
    D(  158) --> V(    1) amplitude =  0.5862 beta
    D(  159) --> S(    4) amplitude = -0.4155 beta
    D(  159) --> S(    5) amplitude =  0.3809 beta
    D(  159) --> V(    1) amplitude =  0.2370 beta

 Excited state  17: excitation energy (eV) =    4.1880
 Total energy for state 17:                 -3317.06318033 au
    <S**2>     : 10.5224
    Trans. Mom.:  0.0256 X   0.0566 Y   0.0204 Z
    Strength   :     0.0004391252
    S(    4) --> V(   17) amplitude =  0.2742 alpha
    S(    5) --> V(   15) amplitude = -0.1667 alpha
    S(    5) --> V(   17) amplitude = -0.3411 alpha
    S(    5) --> V(   19) amplitude =  0.1764 alpha
    D(  159) --> V(   17) amplitude =  0.1774 beta
    D(  159) --> V(   18) amplitude = -0.2623 beta
    D(  159) --> V(   19) amplitude =  0.2578 beta
    D(  159) --> V(   20) amplitude = -0.1701 beta

 Excited state  18: excitation energy (eV) =    4.3524
 Total energy for state 18:                 -3317.05713991 au
    <S**2>     : 10.0293
    Trans. Mom.: -0.0133 X  -0.1191 Y   0.0817 Z
    Strength   :     0.0022416922
    S(    4) --> V(   22) amplitude =  0.2592 alpha
    S(    4) --> V(   23) amplitude = -0.1846 alpha
    S(    5) --> V(   22) amplitude =  0.2107 alpha
    D(  150) --> S(    4) amplitude =  0.1693 beta
    D(  156) --> S(    4) amplitude =  0.2905 beta
    D(  156) --> S(    5) amplitude = -0.1682 beta
    D(  158) --> V(    1) amplitude = -0.1687 beta
    D(  158) --> V(   18) amplitude = -0.1650 beta
    D(  158) --> V(   24) amplitude = -0.3327 beta
    D(  159) --> V(   24) amplitude = -0.1869 beta

 Excited state  19: excitation energy (eV) =    4.4673
 Total energy for state 19:                 -3317.05291453 au
    <S**2>     :  9.0083
    Trans. Mom.: -0.0277 X  -0.0545 Y   0.1020 Z
    Strength   :     0.0015472404
    D(  142) --> S(    2) amplitude =  0.1708 beta
    D(  145) --> S(    1) amplitude =  0.4067 beta
    D(  145) --> S(    2) amplitude = -0.3295 beta
    D(  149) --> S(    1) amplitude =  0.1571 beta
    D(  150) --> S(    4) amplitude =  0.1675 beta
    D(  156) --> S(    4) amplitude =  0.3394 beta
    D(  156) --> S(    5) amplitude = -0.2554 beta
    D(  158) --> S(    4) amplitude =  0.1643 beta

 Excited state  20: excitation energy (eV) =    4.4748
 Total energy for state 20:                 -3317.05264031 au
    <S**2>     :  8.8968
    Trans. Mom.: -0.0364 X   0.1027 Y  -0.0355 Z
    Strength   :     0.0014394282
    D(  145) --> S(    1) amplitude =  0.4732 beta
    D(  145) --> S(    2) amplitude = -0.3767 beta
    D(  150) --> S(    4) amplitude = -0.1751 beta
    D(  156) --> S(    4) amplitude = -0.3443 beta
    D(  156) --> S(    5) amplitude =  0.2386 beta
    D(  158) --> S(    4) amplitude = -0.1692 beta

 Excited state  21: excitation energy (eV) =    4.5557
 Total energy for state 21:                 -3317.04966614 au
    <S**2>     :  8.7916
    Trans. Mom.:  0.1339 X  -0.0888 Y  -0.0539 Z
    Strength   :     0.0032056401
    D(  141) --> S(    2) amplitude = -0.1702 beta
    D(  142) --> S(    1) amplitude = -0.1932 beta
    D(  142) --> S(    2) amplitude = -0.2505 beta
    D(  143) --> S(    1) amplitude = -0.2031 beta
    D(  143) --> S(    2) amplitude = -0.2419 beta
    D(  145) --> S(    1) amplitude =  0.5094 beta
    D(  145) --> S(    2) amplitude =  0.5681 beta
    D(  149) --> S(    2) amplitude =  0.1611 beta

 Excited state  22: excitation energy (eV) =    4.6291
 Total energy for state 22:                 -3317.04696985 au
    <S**2>     :  8.7896
    Trans. Mom.:  0.0464 X  -0.0132 Y   0.1258 Z
    Strength   :     0.0020588355
    D(  138) --> S(    2) amplitude =  0.2204 beta
    D(  139) --> S(    2) amplitude = -0.1665 beta
    D(  141) --> S(    2) amplitude = -0.4880 beta
    D(  142) --> S(    2) amplitude = -0.4760 beta
    D(  143) --> S(    1) amplitude =  0.2203 beta
    D(  143) --> S(    2) amplitude =  0.3598 beta
    D(  149) --> S(    2) amplitude = -0.2051 beta
    D(  150) --> S(    2) amplitude = -0.1944 beta
    D(  156) --> S(    2) amplitude =  0.1513 beta

 Excited state  23: excitation energy (eV) =    4.6812
 Total energy for state 23:                 -3317.04505620 au
    <S**2>     :  8.7947
    Trans. Mom.:  0.0000 X   0.0176 Y   0.2219 Z
    Strength   :     0.0056801063
    D(  138) --> S(    1) amplitude =  0.1828 beta
    D(  139) --> S(    1) amplitude = -0.1951 beta
    D(  141) --> S(    1) amplitude = -0.3614 beta
    D(  141) --> S(    2) amplitude =  0.2044 beta
    D(  142) --> S(    1) amplitude = -0.4665 beta
    D(  142) --> S(    2) amplitude =  0.2160 beta
    D(  143) --> S(    1) amplitude =  0.3611 beta
    D(  145) --> S(    3) amplitude =  0.1591 beta
    D(  149) --> S(    1) amplitude = -0.1541 beta
    D(  150) --> S(    1) amplitude = -0.1712 beta
    D(  156) --> V(    1) amplitude =  0.2145 beta

 Excited state  24: excitation energy (eV) =    4.7010
 Total energy for state 24:                 -3317.04432658 au
    <S**2>     :  8.7834
    Trans. Mom.: -0.0140 X   0.0849 Y  -0.1387 Z
    Strength   :     0.0030679892
    D(  141) --> S(    1) amplitude =  0.2820 beta
    D(  142) --> S(    1) amplitude =  0.2049 beta
    D(  143) --> S(    2) amplitude = -0.2701 beta
    D(  150) --> V(    1) amplitude =  0.2116 beta
    D(  154) --> V(    1) amplitude =  0.1729 beta
    D(  156) --> S(    5) amplitude =  0.2251 beta
    D(  156) --> V(    1) amplitude =  0.5507 beta
    D(  157) --> V(    1) amplitude = -0.1826 beta

 Excited state  25: excitation energy (eV) =    4.7408
 Total energy for state 25:                 -3317.04286527 au
    <S**2>     :  8.7905
    Trans. Mom.: -0.0269 X  -0.0551 Y  -0.0232 Z
    Strength   :     0.0004995860
    D(  139) --> S(    1) amplitude =  0.1858 beta
    D(  141) --> S(    1) amplitude = -0.2774 beta
    D(  141) --> S(    2) amplitude =  0.2043 beta
    D(  143) --> S(    1) amplitude = -0.5223 beta
    D(  143) --> S(    2) amplitude =  0.3727 beta
    D(  144) --> S(    1) amplitude =  0.2502 beta
    D(  156) --> V(    1) amplitude =  0.2990 beta

 Excited state  26: excitation energy (eV) =    4.7861
 Total energy for state 26:                 -3317.04119989 au
    <S**2>     :  8.7880
    Trans. Mom.: -0.0657 X  -0.1616 Y   0.1098 Z
    Strength   :     0.0049838894
    D(  139) --> S(    2) amplitude =  0.1579 beta
    D(  141) --> S(    1) amplitude = -0.2426 beta
    D(  141) --> S(    2) amplitude = -0.3709 beta
    D(  142) --> S(    1) amplitude = -0.1796 beta
    D(  143) --> S(    1) amplitude = -0.2088 beta
    D(  143) --> S(    2) amplitude = -0.4896 beta
    D(  144) --> S(    1) amplitude =  0.1939 beta
    D(  144) --> S(    2) amplitude =  0.2559 beta
    D(  145) --> S(    1) amplitude = -0.1811 beta
    D(  145) --> S(    2) amplitude = -0.3104 beta
    D(  145) --> S(    3) amplitude =  0.2005 beta

 Excited state  27: excitation energy (eV) =    4.8458
 Total energy for state 27:                 -3317.03900475 au
    <S**2>     :  8.7830
    Trans. Mom.:  0.0285 X  -0.1976 Y   0.0774 Z
    Strength   :     0.0054409123
    D(  141) --> S(    1) amplitude =  0.2490 beta
    D(  141) --> S(    3) amplitude = -0.2097 beta
    D(  142) --> S(    1) amplitude =  0.2261 beta
    D(  142) --> S(    3) amplitude = -0.3404 beta
    D(  143) --> S(    3) amplitude = -0.2018 beta
    D(  144) --> S(    1) amplitude = -0.2050 beta
    D(  145) --> S(    3) amplitude =  0.6081 beta
    D(  149) --> S(    3) amplitude =  0.1631 beta

 Excited state  28: excitation energy (eV) =    4.9664
 Total energy for state 28:                 -3317.03457497 au
    <S**2>     :  8.8728
    Trans. Mom.:  0.0005 X  -0.0691 Y   0.0283 Z
    Strength   :     0.0006788486
    D(  143) --> S(    1) amplitude = -0.1763 beta
    D(  144) --> S(    1) amplitude =  0.2236 beta
    D(  156) --> S(    1) amplitude =  0.2608 beta
    D(  157) --> S(    1) amplitude =  0.7550 beta
    D(  157) --> S(    2) amplitude = -0.1829 beta

 Excited state  29: excitation energy (eV) =    4.9762
 Total energy for state 29:                 -3317.03421361 au
    <S**2>     :  8.8371
    Trans. Mom.: -0.1013 X   0.1676 Y  -0.0670 Z
    Strength   :     0.0052235002
    D(  138) --> S(    3) amplitude = -0.1771 beta
    D(  141) --> S(    3) amplitude =  0.4327 beta
    D(  142) --> S(    3) amplitude =  0.3784 beta
    D(  143) --> S(    3) amplitude = -0.2066 beta
    D(  144) --> S(    1) amplitude =  0.1607 beta
    D(  145) --> S(    3) amplitude =  0.2464 beta
    D(  149) --> S(    3) amplitude =  0.2468 beta
    D(  156) --> S(    3) amplitude = -0.1571 beta
    D(  157) --> S(    1) amplitude = -0.1825 beta
    D(  157) --> S(    2) amplitude =  0.3715 beta
    D(  157) --> S(    3) amplitude = -0.1501 beta

 Excited state  30: excitation energy (eV) =    4.9966
 Total energy for state 30:                 -3317.03346563 au
    <S**2>     :  8.8024
    Trans. Mom.: -0.0095 X  -0.0541 Y   0.0014 Z
    Strength   :     0.0003696744
    D(  141) --> S(    3) amplitude = -0.1959 beta
    D(  143) --> S(    2) amplitude = -0.1826 beta
    D(  146) --> S(    2) amplitude =  0.1557 beta
    D(  156) --> S(    2) amplitude =  0.2393 beta
    D(  157) --> S(    1) amplitude =  0.2897 beta
    D(  157) --> S(    2) amplitude =  0.7290 beta

 Excited state  31: excitation energy (eV) =    5.0043
 Total energy for state 31:                 -3317.03318050 au
    <S**2>     : 10.5390
    Trans. Mom.: -0.0179 X   0.0373 Y   0.0112 Z
    Strength   :     0.0002249837
    D(  150) --> V(   18) amplitude = -0.1566 alpha
    S(    3) --> V(   18) amplitude =  0.2795 alpha
    D(  146) --> V(   17) amplitude = -0.1709 beta
    D(  157) --> S(    3) amplitude =  0.1573 beta
    D(  157) --> V(   17) amplitude = -0.3167 beta
    D(  157) --> V(   19) amplitude =  0.1569 beta
    D(  157) --> V(   37) amplitude = -0.1597 beta

 Excited state  32: excitation energy (eV) =    5.0286
 Total energy for state 32:                 -3317.03228736 au
    <S**2>     :  8.8765
    Trans. Mom.: -0.0542 X  -0.0424 Y  -0.1578 Z
    Strength   :     0.0036528270
    D(  138) --> S(    1) amplitude =  0.2352 beta
    D(  139) --> S(    1) amplitude = -0.2454 beta
    D(  141) --> S(    1) amplitude = -0.2913 beta
    D(  141) --> S(    3) amplitude =  0.1885 beta
    D(  142) --> S(    3) amplitude =  0.1648 beta
    D(  143) --> S(    1) amplitude = -0.2272 beta
    D(  144) --> S(    1) amplitude = -0.6424 beta

 Excited state  33: excitation energy (eV) =    5.0709
 Total energy for state 33:                 -3317.03073297 au
    <S**2>     :  8.8193
    Trans. Mom.:  0.0455 X   0.2387 Y  -0.0003 Z
    Strength   :     0.0073370928
    D(  139) --> S(    2) amplitude = -0.1691 beta
    D(  139) --> S(    3) amplitude = -0.1845 beta
    D(  142) --> S(    1) amplitude =  0.1795 beta
    D(  143) --> S(    2) amplitude = -0.1764 beta
    D(  143) --> S(    3) amplitude =  0.2547 beta
    D(  144) --> S(    2) amplitude = -0.5217 beta
    D(  144) --> S(    3) amplitude = -0.1813 beta
    D(  145) --> S(    3) amplitude =  0.1984 beta
    D(  150) --> S(    5) amplitude = -0.1529 beta
    D(  150) --> V(    1) amplitude = -0.1514 beta

 Excited state  34: excitation energy (eV) =    5.0830
 Total energy for state 34:                 -3317.03028829 au
    <S**2>     :  8.8515
    Trans. Mom.: -0.0439 X  -0.0559 Y   0.0843 Z
    Strength   :     0.0015152722
    D(  139) --> S(    3) amplitude =  0.1754 beta
    D(  142) --> S(    1) amplitude = -0.2620 beta
    D(  143) --> S(    3) amplitude = -0.3653 beta
    D(  144) --> S(    1) amplitude = -0.2410 beta
    D(  144) --> S(    2) amplitude = -0.5706 beta
    D(  145) --> S(    1) amplitude = -0.1644 beta
    D(  145) --> S(    3) amplitude = -0.1602 beta
    D(  156) --> S(    3) amplitude = -0.1602 beta
    D(  157) --> S(    3) amplitude = -0.1541 beta

 Excited state  35: excitation energy (eV) =    5.1031
 Total energy for state 35:                 -3317.02955123 au
    <S**2>     :  8.8368
    Trans. Mom.: -0.1139 X  -0.0053 Y  -0.0498 Z
    Strength   :     0.0019345443
    D(  138) --> S(    1) amplitude = -0.2409 beta
    D(  139) --> S(    1) amplitude =  0.2693 beta
    D(  141) --> S(    3) amplitude =  0.2608 beta
    D(  142) --> S(    1) amplitude = -0.4255 beta
    D(  143) --> S(    3) amplitude =  0.4577 beta
    D(  144) --> S(    3) amplitude = -0.1780 beta
    D(  145) --> S(    1) amplitude = -0.1580 beta
    D(  145) --> S(    3) amplitude =  0.1582 beta
    D(  157) --> S(    1) amplitude =  0.1551 beta

 Excited state  36: excitation energy (eV) =    5.1087
 Total energy for state 36:                 -3317.02934536 au
    <S**2>     : 10.6795
    Trans. Mom.:  0.0069 X  -0.0028 Y   0.0201 Z
    Strength   :     0.0000578217
    D(  151) --> V(   26) amplitude =  0.1700 alpha
    S(    1) --> V(   26) amplitude =  0.3127 alpha
    D(  152) --> V(   26) amplitude = -0.1872 beta
    D(  154) --> V(   26) amplitude = -0.2544 beta
    D(  156) --> V(   26) amplitude =  0.1623 beta

 Excited state  37: excitation energy (eV) =    5.1457
 Total energy for state 37:                 -3317.02798438 au
    <S**2>     :  9.5279
    Trans. Mom.:  0.0087 X  -0.1251 Y   0.1557 Z
    Strength   :     0.0050376569
    S(    2) --> V(   18) amplitude = -0.1939 alpha
    D(  139) --> S(    1) amplitude = -0.2008 beta
    D(  150) --> V(    1) amplitude =  0.3131 beta
    D(  152) --> V(    1) amplitude = -0.2183 beta
    D(  154) --> V(    1) amplitude = -0.1712 beta
    D(  156) --> V(   17) amplitude =  0.1565 beta
    D(  157) --> S(    1) amplitude = -0.1767 beta

 Excited state  38: excitation energy (eV) =    5.1775
 Total energy for state 38:                 -3317.02681776 au
    <S**2>     :  9.2843
    Trans. Mom.:  0.1518 X   0.0551 Y   0.1946 Z
    Strength   :     0.0081118079
    S(    2) --> V(   18) amplitude =  0.1789 alpha
    D(  142) --> S(    2) amplitude = -0.2178 beta
    D(  144) --> S(    2) amplitude = -0.2210 beta
    D(  145) --> S(    2) amplitude = -0.1518 beta
    D(  150) --> V(    1) amplitude =  0.2987 beta
    D(  152) --> V(    1) amplitude = -0.2116 beta
    D(  154) --> V(    1) amplitude = -0.1929 beta

 Excited state  39: excitation energy (eV) =    5.1860
 Total energy for state 39:                 -3317.02650321 au
    <S**2>     :  8.9116
    Trans. Mom.:  0.0806 X  -0.2463 Y   0.2671 Z
    Strength   :     0.0175996022
    D(  138) --> S(    2) amplitude = -0.3226 beta
    D(  139) --> S(    2) amplitude =  0.4142 beta
    D(  140) --> S(    2) amplitude = -0.1823 beta
    D(  142) --> S(    2) amplitude = -0.4753 beta
    D(  145) --> S(    2) amplitude = -0.2227 beta
    D(  157) --> S(    2) amplitude =  0.1698 beta

 Excited state  40: excitation energy (eV) =    5.2149
 Total energy for state 40:                 -3317.02544156 au
    <S**2>     :  8.9686
    Trans. Mom.: -0.2765 X  -0.6427 Y   0.3752 Z
    Strength   :     0.0805227452
    D(  141) --> S(    3) amplitude =  0.1615 beta
    D(  142) --> S(    2) amplitude =  0.2109 beta
    D(  143) --> S(    3) amplitude =  0.1547 beta
    D(  144) --> S(    1) amplitude =  0.2152 beta
    D(  144) --> S(    2) amplitude = -0.1960 beta
    D(  150) --> S(    4) amplitude = -0.2636 beta
    D(  150) --> S(    5) amplitude =  0.1560 beta
    D(  152) --> S(    4) amplitude =  0.1765 beta
    D(  154) --> S(    4) amplitude =  0.1912 beta
    D(  156) --> S(    4) amplitude =  0.1638 beta

 Excited state  41: excitation energy (eV) =    5.2501
 Total energy for state 41:                 -3317.02414964 au
    <S**2>     :  8.8849
    Trans. Mom.: -0.0164 X   0.0164 Y  -0.0291 Z
    Strength   :     0.0001784434
    D(  143) --> S(    3) amplitude = -0.2824 beta
    D(  146) --> S(    3) amplitude =  0.1833 beta
    D(  156) --> S(    3) amplitude =  0.2254 beta
    D(  157) --> S(    3) amplitude =  0.8063 beta

 Excited state  42: excitation energy (eV) =    5.3461
 Total energy for state 42:                 -3317.02061950 au
    <S**2>     : 10.7100
    Trans. Mom.: -0.0293 X  -0.0162 Y   0.0105 Z
    Strength   :     0.0001614731
    D(  150) --> V(   26) amplitude =  0.1526 alpha
    D(  152) --> V(   26) amplitude = -0.2613 alpha
    D(  157) --> V(   26) amplitude =  0.2138 alpha
    D(  146) --> V(   26) amplitude =  0.1697 beta
    D(  148) --> V(   26) amplitude = -0.2199 beta
    D(  149) --> V(   26) amplitude =  0.1786 beta
    D(  153) --> V(   26) amplitude =  0.2065 beta

 Excited state  43: excitation energy (eV) =    5.3809
 Total energy for state 43:                 -3317.01934279 au
    <S**2>     :  8.9282
    Trans. Mom.:  0.2121 X   0.0050 Y   0.0367 Z
    Strength   :     0.0061117232
    D(  135) --> S(    1) amplitude =  0.1946 beta
    D(  136) --> S(    1) amplitude = -0.1925 beta
    D(  139) --> S(    1) amplitude = -0.3025 beta
    D(  140) --> S(    1) amplitude =  0.4188 beta
    D(  141) --> S(    1) amplitude =  0.2954 beta
    D(  142) --> S(    1) amplitude = -0.2811 beta
    D(  143) --> S(    1) amplitude = -0.2341 beta
    D(  155) --> S(    1) amplitude =  0.1594 beta

 Excited state  44: excitation energy (eV) =    5.4424
 Total energy for state 44:                 -3317.01708290 au
    <S**2>     :  8.8971
    Trans. Mom.: -0.1802 X  -0.1049 Y   0.1859 Z
    Strength   :     0.0104057730
    D(  135) --> S(    2) amplitude =  0.1757 beta
    D(  136) --> S(    2) amplitude = -0.2001 beta
    D(  139) --> S(    2) amplitude = -0.3151 beta
    D(  140) --> S(    2) amplitude =  0.4023 beta
    D(  141) --> S(    2) amplitude =  0.2966 beta
    D(  142) --> S(    2) amplitude = -0.3050 beta
    D(  143) --> S(    2) amplitude = -0.2856 beta
    D(  145) --> S(    2) amplitude = -0.1552 beta
    D(  155) --> S(    2) amplitude =  0.1662 beta

 Excited state  45: excitation energy (eV) =    5.4598
 Total energy for state 45:                 -3317.01644177 au
    <S**2>     :  8.8372
    Trans. Mom.:  0.1449 X  -0.0587 Y   0.1181 Z
    Strength   :     0.0051325733
    D(  144) --> S(    3) amplitude = -0.7842 beta
    D(  145) --> S(    3) amplitude = -0.2738 beta

 Excited state  46: excitation energy (eV) =    5.4776
 Total energy for state 46:                 -3317.01578831 au
    <S**2>     : 10.4601
    Trans. Mom.: -0.0590 X   0.0084 Y   0.0233 Z
    Strength   :     0.0005504479
    D(  153) --> V(   18) amplitude = -0.1501 alpha
    D(  144) --> S(    3) amplitude = -0.1801 beta
    D(  149) --> V(   17) amplitude =  0.2454 beta

 Excited state  47: excitation energy (eV) =    5.4961
 Total energy for state 47:                 -3317.01510811 au
    <S**2>     :  8.8131
    Trans. Mom.:  0.0195 X  -0.0767 Y   0.0901 Z
    Strength   :     0.0019345889
    D(  147) --> S(    1) amplitude =  0.1836 beta
    D(  150) --> S(    1) amplitude =  0.2186 beta
    D(  153) --> S(    1) amplitude = -0.2860 beta
    D(  154) --> S(    1) amplitude =  0.6190 beta
    D(  154) --> S(    2) amplitude =  0.2924 beta
    D(  155) --> S(    1) amplitude =  0.2736 beta
    D(  156) --> S(    1) amplitude = -0.2799 beta

 Excited state  48: excitation energy (eV) =    5.5532
 Total energy for state 48:                 -3317.01300828 au
    <S**2>     :  8.8289
    Trans. Mom.: -0.0023 X  -0.0594 Y   0.0923 Z
    Strength   :     0.0016398999
    D(  138) --> S(    3) amplitude =  0.3118 beta
    D(  139) --> S(    3) amplitude = -0.4024 beta
    D(  140) --> S(    3) amplitude =  0.1735 beta
    D(  141) --> S(    3) amplitude = -0.1934 beta
    D(  142) --> S(    3) amplitude =  0.3592 beta
    D(  144) --> S(    3) amplitude = -0.1631 beta
    D(  154) --> S(    2) amplitude =  0.2651 beta

 Excited state  49: excitation energy (eV) =    5.5547
 Total energy for state 49:                 -3317.01295380 au
    <S**2>     :  8.8042
    Trans. Mom.:  0.0081 X   0.0409 Y  -0.0942 Z
    Strength   :     0.0014454662
    D(  147) --> S(    2) amplitude =  0.1706 beta
    D(  150) --> S(    2) amplitude =  0.2076 beta
    D(  153) --> S(    2) amplitude = -0.2254 beta
    D(  154) --> S(    1) amplitude = -0.2647 beta
    D(  154) --> S(    2) amplitude =  0.5434 beta
    D(  155) --> S(    1) amplitude = -0.1619 beta
    D(  155) --> S(    2) amplitude =  0.2645 beta
    D(  156) --> S(    1) amplitude =  0.1603 beta
    D(  156) --> S(    2) amplitude = -0.2903 beta

 Excited state  50: excitation energy (eV) =    5.5748
 Total energy for state 50:                 -3317.01221458 au
    <S**2>     :  8.8080
    Trans. Mom.: -0.0704 X  -0.0093 Y   0.1796 Z
    Strength   :     0.0050929052
    S(    2) --> V(   18) amplitude = -0.1843 alpha
    D(  135) --> S(    1) amplitude =  0.1516 beta
    D(  140) --> S(    1) amplitude =  0.3713 beta
    D(  140) --> S(    2) amplitude = -0.2075 beta
    D(  142) --> S(    3) amplitude = -0.2851 beta
    D(  154) --> S(    1) amplitude = -0.1557 beta
    D(  154) --> S(    2) amplitude =  0.1725 beta
    D(  156) --> V(   17) amplitude = -0.1805 beta

 Excited state  51: excitation energy (eV) =    5.5894
 Total energy for state 51:                 -3317.01167939 au
    <S**2>     : 10.6063
    Trans. Mom.: -0.0307 X  -0.0068 Y  -0.0194 Z
    Strength   :     0.0001871420
    S(    4) --> V(    4) amplitude =  0.1519 alpha
    S(    5) --> V(    1) amplitude =  0.3180 alpha
    D(  158) --> V(    4) amplitude = -0.1971 beta
    D(  159) --> S(    4) amplitude =  0.2182 beta
    D(  159) --> S(    5) amplitude =  0.3770 beta
    D(  159) --> V(    1) amplitude = -0.2226 beta

 Excited state  52: excitation energy (eV) =    5.5959
 Total energy for state 52:                 -3317.01144123 au
    <S**2>     : 10.6931
    Trans. Mom.:  0.0260 X   0.0081 Y   0.0315 Z
    Strength   :     0.0002380580
    S(    3) --> V(   40) amplitude = -0.1587 alpha
    S(    5) --> V(    1) amplitude = -0.1658 alpha
    D(  157) --> V(   40) amplitude =  0.1659 beta
    D(  159) --> S(    5) amplitude = -0.2318 beta

 Excited state  53: excitation energy (eV) =    5.6395
 Total energy for state 53:                 -3317.00983718 au
    <S**2>     :  8.9733
    Trans. Mom.:  0.1220 X   0.0497 Y   0.0256 Z
    Strength   :     0.0024899522
    S(    4) --> V(    1) amplitude =  0.1858 alpha
    S(    5) --> V(    1) amplitude =  0.2497 alpha
    D(  154) --> S(    1) amplitude = -0.2645 beta
    D(  155) --> S(    1) amplitude =  0.6485 beta
    D(  155) --> S(    2) amplitude = -0.3337 beta

 Excited state  54: excitation energy (eV) =    5.6421
 Total energy for state 54:                 -3317.00974268 au
    <S**2>     :  9.3846
    Trans. Mom.: -0.0855 X  -0.0622 Y  -0.1667 Z
    Strength   :     0.0053863177
    S(    4) --> V(    1) amplitude = -0.3352 alpha
    S(    4) --> V(    2) amplitude =  0.1551 alpha
    S(    4) --> V(    4) amplitude = -0.1738 alpha
    S(    5) --> V(    1) amplitude = -0.3219 alpha
    D(  154) --> S(    1) amplitude = -0.1745 beta
    D(  155) --> S(    1) amplitude =  0.3840 beta
    D(  155) --> S(    2) amplitude = -0.2007 beta
    D(  159) --> S(    5) amplitude =  0.2677 beta
    D(  159) --> V(    1) amplitude = -0.1633 beta
    D(  159) --> V(    4) amplitude =  0.1570 beta

 Excited state  55: excitation energy (eV) =    5.6539
 Total energy for state 55:                 -3317.00930940 au
    <S**2>     :  9.9061
    Trans. Mom.:  0.0687 X   0.0424 Y   0.1072 Z
    Strength   :     0.0024937588
    S(    4) --> V(    1) amplitude = -0.2664 alpha
    S(    5) --> V(    1) amplitude =  0.3878 alpha
    S(    5) --> V(    4) amplitude = -0.2083 alpha
    D(  158) --> S(    4) amplitude = -0.2201 beta
    D(  158) --> S(    5) amplitude = -0.3278 beta
    D(  158) --> V(    1) amplitude =  0.1954 beta
    D(  158) --> V(    2) amplitude =  0.1674 beta
    D(  158) --> V(    4) amplitude =  0.1616 beta
    D(  159) --> V(    4) amplitude =  0.1853 beta

 Excited state  56: excitation energy (eV) =    5.6689
 Total energy for state 56:                 -3317.00875739 au
    <S**2>     :  8.8311
    Trans. Mom.: -0.0428 X  -0.0725 Y   0.0216 Z
    Strength   :     0.0010489912
    D(  140) --> S(    1) amplitude =  0.2348 beta
    D(  140) --> S(    2) amplitude =  0.3542 beta
    D(  149) --> S(    1) amplitude =  0.2924 beta
    D(  149) --> S(    2) amplitude =  0.2746 beta
    D(  153) --> S(    1) amplitude =  0.3709 beta
    D(  153) --> S(    2) amplitude =  0.3111 beta
    D(  156) --> S(    1) amplitude = -0.2026 beta
    D(  156) --> S(    2) amplitude = -0.1846 beta

 Excited state  57: excitation energy (eV) =    5.6916
 Total energy for state 57:                 -3317.00792211 au
    <S**2>     : 10.2551
    Trans. Mom.:  0.0370 X  -0.0151 Y  -0.0159 Z
    Strength   :     0.0002577558
    D(  159) --> V(   38) amplitude = -0.1534 alpha
    D(  159) --> V(   40) amplitude =  0.1667 alpha
    D(  155) --> S(    1) amplitude =  0.2731 beta
    D(  155) --> S(    2) amplitude =  0.3447 beta
    D(  155) --> V(   40) amplitude = -0.1579 beta

 Excited state  58: excitation energy (eV) =    5.6981
 Total energy for state 58:                 -3317.00768487 au
    <S**2>     :  9.0846
    Trans. Mom.:  0.2208 X  -0.1589 Y   0.0633 Z
    Strength   :     0.0108922204
    S(    4) --> V(    1) amplitude =  0.3141 alpha
    S(    5) --> V(    4) amplitude =  0.1929 alpha
    D(  154) --> S(    2) amplitude = -0.1963 beta
    D(  155) --> S(    1) amplitude =  0.1787 beta
    D(  155) --> S(    2) amplitude =  0.4605 beta
    D(  158) --> S(    5) amplitude = -0.2208 beta
    D(  159) --> V(    4) amplitude =  0.1773 beta

 Excited state  59: excitation energy (eV) =    5.6984
 Total energy for state 59:                 -3317.00767465 au
    <S**2>     :  8.9915
    Trans. Mom.: -0.1817 X   0.1289 Y  -0.0899 Z
    Strength   :     0.0080577155
    S(    4) --> V(    1) amplitude = -0.2532 alpha
    S(    5) --> V(    4) amplitude = -0.1511 alpha
    D(  154) --> S(    2) amplitude = -0.2252 beta
    D(  155) --> S(    1) amplitude =  0.2631 beta
    D(  155) --> S(    2) amplitude =  0.5272 beta
    D(  158) --> S(    5) amplitude =  0.2144 beta
    D(  159) --> V(    4) amplitude = -0.1670 beta

 Excited state  60: excitation energy (eV) =    5.7240
 Total energy for state 60:                 -3317.00673354 au
    <S**2>     :  8.8466
    Trans. Mom.: -0.1403 X  -0.0014 Y   0.0121 Z
    Strength   :     0.0027797346
    D(  139) --> S(    3) amplitude = -0.1901 beta
    D(  140) --> S(    3) amplitude =  0.1876 beta
    D(  142) --> S(    3) amplitude = -0.2151 beta
    D(  152) --> S(    3) amplitude =  0.1570 beta
    D(  153) --> S(    1) amplitude = -0.2119 beta
    D(  153) --> S(    3) amplitude = -0.2972 beta
    D(  154) --> S(    3) amplitude =  0.4811 beta
    D(  155) --> S(    3) amplitude =  0.3182 beta

 Excited state  61: excitation energy (eV) =    5.7290
 Total energy for state 61:                 -3317.00654775 au
    <S**2>     :  8.9629
    Trans. Mom.:  0.0357 X  -0.0371 Y   0.0309 Z
    Strength   :     0.0005062122
    D(  140) --> S(    3) amplitude = -0.1575 beta
    D(  141) --> S(    3) amplitude = -0.2197 beta
    D(  142) --> S(    3) amplitude =  0.1948 beta
    D(  143) --> S(    3) amplitude =  0.2760 beta
    D(  145) --> S(    4) amplitude =  0.2112 beta
    D(  147) --> S(    3) amplitude =  0.1636 beta
    D(  150) --> S(    3) amplitude =  0.1727 beta
    D(  151) --> S(    3) amplitude = -0.1510 beta
    D(  153) --> S(    2) amplitude = -0.1530 beta
    D(  154) --> S(    3) amplitude =  0.4153 beta
    D(  156) --> S(    3) amplitude = -0.2858 beta

 Excited state  62: excitation energy (eV) =    5.7313
 Total energy for state 62:                 -3317.00646424 au
    <S**2>     : 10.6260
    Trans. Mom.: -0.0186 X  -0.0043 Y  -0.0061 Z
    Strength   :     0.0000562285
    D(  154) --> V(   37) amplitude = -0.1503 alpha
    D(  154) --> V(   38) amplitude =  0.1502 alpha
    D(  154) --> V(   40) amplitude = -0.1714 alpha
    D(  151) --> V(   37) amplitude = -0.1661 beta
    D(  151) --> V(   38) amplitude =  0.1677 beta
    D(  151) --> V(   40) amplitude = -0.1973 beta

 Excited state  63: excitation energy (eV) =    5.7370
 Total energy for state 63:                 -3317.00625393 au
    <S**2>     :  8.8053
    Trans. Mom.: -0.0492 X   0.1102 Y   0.0882 Z
    Strength   :     0.0031427338
    D(  152) --> V(   26) amplitude = -0.1786 alpha
    D(  149) --> S(    2) amplitude =  0.1517 beta
    D(  153) --> S(    1) amplitude = -0.1524 beta
    D(  153) --> S(    2) amplitude =  0.1726 beta
    D(  153) --> S(    3) amplitude =  0.1540 beta
    D(  154) --> S(    3) amplitude = -0.1527 beta
    D(  156) --> V(   17) amplitude = -0.1639 beta

 Excited state  64: excitation energy (eV) =    5.7440
 Total energy for state 64:                 -3317.00599843 au
    <S**2>     : 10.6672
    Trans. Mom.:  0.0168 X   0.0396 Y  -0.0088 Z
    Strength   :     0.0002716666
    D(  151) --> V(   39) amplitude = -0.2001 alpha
    D(  158) --> V(   39) amplitude = -0.2176 alpha
    S(    1) --> V(   39) amplitude =  0.1836 alpha
    D(  147) --> V(   39) amplitude = -0.1619 beta
    D(  154) --> V(   39) amplitude =  0.2283 beta

 Excited state  65: excitation energy (eV) =    5.7566
 Total energy for state 65:                 -3317.00553592 au
    <S**2>     :  8.8254
    Trans. Mom.: -0.1072 X  -0.2510 Y   0.0373 Z
    Strength   :     0.0107040259
    D(  140) --> S(    3) amplitude =  0.2049 beta
    D(  142) --> S(    3) amplitude = -0.1914 beta
    D(  143) --> S(    3) amplitude = -0.1737 beta
    D(  149) --> S(    2) amplitude = -0.1767 beta
    D(  153) --> S(    1) amplitude =  0.2574 beta
    D(  153) --> S(    2) amplitude = -0.2133 beta
    D(  156) --> V(   26) amplitude =  0.1762 beta

 Excited state  66: excitation energy (eV) =    5.7599
 Total energy for state 66:                 -3317.00541474 au
    <S**2>     :  8.8077
    Trans. Mom.:  0.2565 X   0.3101 Y   0.1831 Z
    Strength   :     0.0275810301
    D(  142) --> S(    4) amplitude =  0.2000 beta
    D(  142) --> V(    1) amplitude =  0.2490 beta
    D(  145) --> S(    4) amplitude = -0.4354 beta
    D(  145) --> V(    1) amplitude = -0.2946 beta
    D(  153) --> S(    1) amplitude =  0.2380 beta

 Excited state  67: excitation energy (eV) =    5.7821
 Total energy for state 67:                 -3317.00459751 au
    <S**2>     : 10.7503
    Trans. Mom.: -0.0017 X  -0.0061 Y   0.0034 Z
    Strength   :     0.0000073725
    D(  152) --> V(   39) amplitude = -0.1934 alpha
    D(  157) --> V(   39) amplitude = -0.2290 alpha
    D(  148) --> V(   39) amplitude =  0.2217 beta
    D(  153) --> V(   39) amplitude =  0.2425 beta

 Excited state  68: excitation energy (eV) =    5.8178
 Total energy for state 68:                 -3317.00328584 au
    <S**2>     :  8.8024
    Trans. Mom.: -0.1389 X   0.1323 Y  -0.3066 Z
    Strength   :     0.0186404946
    D(  140) --> S(    1) amplitude = -0.1752 beta
    D(  145) --> V(    1) amplitude =  0.2123 beta
    D(  149) --> S(    1) amplitude = -0.2121 beta
    D(  152) --> S(    1) amplitude =  0.2804 beta
    D(  153) --> S(    1) amplitude =  0.5425 beta
    D(  153) --> S(    2) amplitude =  0.3169 beta
    D(  154) --> S(    1) amplitude =  0.1614 beta

 Excited state  69: excitation energy (eV) =    5.8263
 Total energy for state 69:                 -3317.00297423 au
    <S**2>     :  8.7743
    Trans. Mom.:  0.1835 X   0.1316 Y  -0.1506 Z
    Strength   :     0.0105163805
    S(    3) --> V(    1) amplitude =  0.1899 alpha
    S(    3) --> V(    2) amplitude =  0.1766 alpha
    S(    3) --> V(    4) amplitude =  0.1505 alpha
    S(    3) --> V(    8) amplitude = -0.1601 alpha
    D(  153) --> S(    1) amplitude = -0.1724 beta
    D(  153) --> S(    2) amplitude = -0.2008 beta
    D(  157) --> S(    4) amplitude =  0.1921 beta
    D(  157) --> V(    2) amplitude =  0.1644 beta
    D(  157) --> V(    4) amplitude = -0.1717 beta
    D(  157) --> V(    5) amplitude = -0.1522 beta
    D(  157) --> V(    8) amplitude =  0.1696 beta

 Excited state  70: excitation energy (eV) =    5.8305
 Total energy for state 70:                 -3317.00281780 au
    <S**2>     :  8.7913
    Trans. Mom.:  0.2041 X  -0.1240 Y   0.5857 Z
    Strength   :     0.0571514799
    D(  143) --> S(    4) amplitude = -0.1742 beta
    D(  143) --> S(    5) amplitude =  0.2258 beta
    D(  143) --> V(    1) amplitude =  0.2149 beta
    D(  145) --> S(    4) amplitude =  0.1902 beta
    D(  145) --> S(    5) amplitude = -0.2894 beta
    D(  145) --> V(    1) amplitude = -0.3257 beta

 Excited state  71: excitation energy (eV) =    5.8594
 Total energy for state 71:                 -3317.00175708 au
    <S**2>     :  8.9146
    Trans. Mom.:  0.0291 X  -0.0587 Y  -0.0944 Z
    Strength   :     0.0018959422
    D(  145) --> S(    5) amplitude =  0.1503 beta
    D(  152) --> S(    2) amplitude =  0.1670 beta
    D(  153) --> S(    1) amplitude = -0.1657 beta
    D(  153) --> S(    2) amplitude =  0.4565 beta

 Excited state  72: excitation energy (eV) =    5.8727
 Total energy for state 72:                 -3317.00126928 au
    <S**2>     :  9.8753
    Trans. Mom.: -0.0336 X   0.1008 Y  -0.0622 Z
    Strength   :     0.0021804702
    D(  148) --> V(   18) amplitude = -0.2243 alpha
    D(  148) --> V(   26) amplitude = -0.1605 alpha
    D(  148) --> V(   34) amplitude = -0.1616 alpha
    D(  148) --> V(   37) amplitude =  0.1780 alpha
    D(  144) --> V(   17) amplitude =  0.1735 beta
    D(  144) --> V(   37) amplitude = -0.1703 beta
    D(  149) --> S(    1) amplitude =  0.1983 beta
    D(  149) --> S(    2) amplitude = -0.1524 beta
    D(  152) --> S(    1) amplitude = -0.2452 beta
    D(  153) --> S(    1) amplitude = -0.2067 beta
    D(  153) --> S(    2) amplitude =  0.3387 beta

 Excited state  73: excitation energy (eV) =    5.8900
 Total energy for state 73:                 -3317.00063107 au
    <S**2>     : 10.6595
    Trans. Mom.: -0.0023 X  -0.0018 Y  -0.0652 Z
    Strength   :     0.0006144096
    S(    3) --> V(    1) amplitude =  0.2489 alpha
    S(    3) --> V(    2) amplitude =  0.1610 alpha
    S(    3) --> V(    4) amplitude =  0.2431 alpha
    S(    3) --> V(    6) amplitude =  0.1986 alpha
    D(  157) --> S(    4) amplitude = -0.2030 beta
    D(  157) --> V(    4) amplitude =  0.2478 beta
    D(  157) --> V(    6) amplitude =  0.1908 beta

 Excited state  74: excitation energy (eV) =    5.9016
 Total energy for state 74:                 -3317.00020798 au
    <S**2>     :  9.3788
    Trans. Mom.: -0.0190 X   0.0186 Y  -0.1901 Z
    Strength   :     0.0053250755
    D(  149) --> S(    1) amplitude = -0.1626 beta
    D(  149) --> S(    2) amplitude =  0.1821 beta
    D(  152) --> S(    1) amplitude =  0.3068 beta
    D(  153) --> S(    2) amplitude = -0.2142 beta

 Excited state  75: excitation energy (eV) =    5.9058
 Total energy for state 75:                 -3317.00005085 au
    <S**2>     :  9.6746
    Trans. Mom.:  0.1750 X  -0.0527 Y  -0.0282 Z
    Strength   :     0.0049494992
    D(  157) --> V(   39) amplitude = -0.1575 alpha
    D(  148) --> S(    1) amplitude =  0.1934 beta
    D(  150) --> S(    1) amplitude =  0.2753 beta
    D(  152) --> S(    1) amplitude =  0.3219 beta
    D(  152) --> S(    2) amplitude =  0.2418 beta
    D(  152) --> V(   39) amplitude =  0.1687 beta
    D(  153) --> V(   39) amplitude =  0.1527 beta
    D(  154) --> S(    1) amplitude = -0.1808 beta

 Excited state  76: excitation energy (eV) =    5.9102
 Total energy for state 76:                 -3316.99989100 au
    <S**2>     :  9.8137
    Trans. Mom.:  0.1878 X  -0.0577 Y   0.0308 Z
    Strength   :     0.0057277880
    D(  157) --> V(   39) amplitude =  0.1744 alpha
    D(  148) --> S(    1) amplitude =  0.1815 beta
    D(  149) --> S(    2) amplitude = -0.1549 beta
    D(  150) --> S(    1) amplitude =  0.2428 beta
    D(  152) --> S(    1) amplitude =  0.2466 beta
    D(  152) --> S(    2) amplitude =  0.2280 beta
    D(  152) --> V(   39) amplitude = -0.1872 beta
    D(  153) --> V(   39) amplitude = -0.1623 beta
    D(  154) --> S(    1) amplitude = -0.1708 beta

 Excited state  77: excitation energy (eV) =    5.9291
 Total energy for state 77:                 -3316.99919549 au
    <S**2>     :  8.8378
    Trans. Mom.:  0.1442 X  -0.0562 Y  -0.0967 Z
    Strength   :     0.0048399853
    D(  140) --> S(    3) amplitude =  0.3801 beta
    D(  146) --> S(    3) amplitude =  0.1685 beta
    D(  149) --> S(    3) amplitude =  0.3204 beta
    D(  152) --> S(    1) amplitude = -0.1844 beta
    D(  153) --> S(    3) amplitude =  0.4337 beta
    D(  155) --> S(    3) amplitude =  0.1548 beta
    D(  156) --> S(    3) amplitude = -0.2475 beta

 Excited state  78: excitation energy (eV) =    5.9344
 Total energy for state 78:                 -3316.99900218 au
[...]
  1.8872   1.8887   1.8933   1.8959   1.9030   1.9058   1.9109   1.9133
  1.9190   1.9244   1.9268   1.9330   1.9372   1.9424   1.9446   1.9482
  1.9551   1.9570   1.9608   1.9621   1.9683   1.9729   1.9752   1.9774
  1.9800   1.9871   1.9900   1.9929   1.9948   2.0007   2.0048   2.0083
  2.0112   2.0138   2.0158   2.0209   2.0260   2.0308   2.0359   2.0373
  2.0416   2.0442   2.0447   2.0449   2.0563   2.0600   2.0625   2.0632
  2.0667   2.0704   2.0756   2.0762   2.0856   2.0894   2.0918   2.0948
  2.0977   2.1016   2.1039   2.1078   2.1114   2.1135   2.1148   2.1209
  2.1276   2.1291   2.1306   2.1345   2.1368   2.1400   2.1508   2.1521
  2.1543   2.1591   2.1677   2.1687   2.1742   2.1766   2.1828   2.1880
  2.1923   2.1956   2.1962   2.2014   2.2053   2.2126   2.2141   2.2240
  2.2293   2.2302   2.2378   2.2417   2.2437   2.2480   2.2521   2.2588
  2.2622   2.2634   2.2702   2.2757   2.2788   2.2853   2.2906   2.2969
  2.2972   2.3051   2.3065   2.3108   2.3174   2.3180   2.3247   2.3354
  2.3389   2.3423   2.3447   2.3517   2.3596   2.3643   2.3660   2.3667
  2.3754   2.3792   2.3828   2.3895   2.3971   2.3975   2.4031   2.4102
  2.4188   2.4219   2.4290   2.4340   2.4358   2.4456   2.4504   2.4520
  2.4543   2.4609   2.4722   2.4757   2.4815   2.4869   2.4911   2.4954
  2.4988   2.5046   2.5082   2.5168   2.5188   2.5245   2.5268   2.5310
  2.5330   2.5336   2.5432   2.5481   2.5528   2.5613   2.5650   2.5694
  2.5743   2.5769   2.5859   2.5898   2.5941   2.6059   2.6131   2.6142
  2.6172   2.6300   2.6343   2.6367   2.6423   2.6485   2.6507   2.6602
  2.6653   2.6698   2.6779   2.6836   2.6877   2.6947   2.7040   2.7174
  2.7271   2.7318   2.7384   2.7459   2.7518   2.7548   2.7632   2.7663
  2.7712   2.7789   2.7813   2.7897   2.7918   2.7949   2.7990   2.8089
  2.8140   2.8243   2.8280   2.8327   2.8383   2.8497   2.8574   2.8682
  2.8748   2.8798   2.8860   2.8871   2.8932   2.8974   2.9037   2.9162
  2.9268   2.9346   2.9409   2.9431   2.9535   2.9582   2.9711   2.9749
  2.9804   2.9905   2.9952   3.0023   3.0148   3.0288   3.0377   3.0525
  3.0558   3.0688   3.0869   3.0965   3.1010   3.1142   3.1324   3.1487
  3.1557   3.1735   3.1821   3.1875   3.2127   3.2235   3.2566   3.2651
  3.2861   3.2977   3.3088   3.3253   3.3313   3.3523   3.3711   3.3942
  3.4196   3.4287   3.4494   3.4666   3.4869   3.5073   3.5115   3.5302
  3.5323   3.5361   3.5430   3.5561   3.5583   3.5625   3.5677   3.5719
  3.5742   3.5810   3.5844   3.5902   3.5985   3.6025   3.6093   3.6143
  3.6170   3.6222   3.6272   3.6339   3.6354   3.6418   3.6428   3.6468
  3.6550   3.6664   3.6691   3.6773   3.6819   3.6936   3.6990   3.7121
  3.7257   3.7382   3.7429   3.7490   3.7518   3.7631   3.7705   3.7725
  3.7798   3.7910   3.8034   3.8128   3.8232   3.8324   3.8464   3.8644
  3.8705   3.8721   3.8778   3.8866   3.8907   3.9020   3.9158   3.9207
  3.9396   3.9574   3.9824   3.9896   3.9937   4.0318   4.0341   4.0485
  4.0500   4.0662   4.0762   4.0900   4.1003   4.1375   4.1582   4.1705
  4.1861   4.2110   4.2416   4.2565   4.2807   4.3326   4.3789   4.4222
  4.4565   4.4645   4.5596   4.5837   4.6675   4.6981
 
 Beta MOs
 -- Occupied --
******** -30.1316 -26.0018 -26.0002 -26.0000 -19.2082 -19.2070 -19.2010
-19.2007 -19.1965 -19.1849 -19.1814 -19.1789 -19.1649 -19.1626 -19.1619
-19.1582 -19.1571 -14.4856 -14.4824 -14.4073 -14.3985 -10.3657 -10.3626
-10.3609 -10.3524 -10.3500 -10.3450 -10.3391 -10.3110 -10.2904 -10.2844
-10.2810 -10.2765 -10.2615 -10.2609 -10.2500 -10.2483 -10.2473 -10.2467
-10.2415 -10.2409 -10.2374 -10.2370  -3.4991  -2.2604  -2.2579  -2.2572
 -1.1653  -1.1619  -1.1341  -1.1124  -1.1071  -1.1050  -1.1005  -1.0896
 -1.0865  -1.0491  -1.0279  -1.0211  -1.0137  -0.9896  -0.9881  -0.9319
 -0.9290  -0.8765  -0.8707  -0.8526  -0.8387  -0.8283  -0.8093  -0.8033
 -0.7911  -0.7696  -0.7583  -0.7168  -0.7071  -0.6910  -0.6650  -0.6537
 -0.6401  -0.6283  -0.6160  -0.6064  -0.5993  -0.5949  -0.5869  -0.5783
 -0.5723  -0.5685  -0.5638  -0.5582  -0.5512  -0.5466  -0.5417  -0.5383
 -0.5309  -0.5251  -0.5224  -0.5188  -0.5160  -0.5133  -0.5071  -0.5041
 -0.4948  -0.4903  -0.4891  -0.4851  -0.4791  -0.4774  -0.4751  -0.4738
 -0.4717  -0.4681  -0.4660  -0.4645  -0.4627  -0.4577  -0.4565  -0.4500
 -0.4473  -0.4453  -0.4431  -0.4386  -0.4332  -0.4322  -0.4183  -0.4158
 -0.4148  -0.4116  -0.3960  -0.3942  -0.3900  -0.3856  -0.3811  -0.3781
 -0.3761  -0.3745  -0.3704  -0.3697  -0.3634  -0.3566  -0.3498  -0.3457
 -0.3441  -0.3280  -0.3243  -0.3205  -0.3156  -0.3125  -0.3115  -0.3083
 -0.3048  -0.2977  -0.2971  -0.2894  -0.2814  -0.2705  -0.2669
 -- Virtual --
 -0.0299  -0.0285  -0.0191   0.0125   0.0147   0.0165   0.0199   0.0203
  0.0216   0.0310   0.0326   0.0331   0.0347   0.0364   0.0457   0.0462
  0.0492   0.0506   0.0525   0.0546   0.0572   0.0611   0.0627   0.0645
  0.0662   0.0670   0.0693   0.0714   0.0723   0.0736   0.0755   0.0779
  0.0781   0.0817   0.0830   0.0848   0.0853   0.0873   0.0913   0.0922
  0.0946   0.0969   0.0970   0.1005   0.1025   0.1046   0.1060   0.1074
  0.1095   0.1105   0.1126   0.1151   0.1175   0.1192   0.1208   0.1231
  0.1235   0.1264   0.1280   0.1283   0.1298   0.1311   0.1336   0.1350
  0.1367   0.1382   0.1415   0.1427   0.1454   0.1465   0.1496   0.1501
  0.1528   0.1533   0.1538   0.1551   0.1558   0.1601   0.1611   0.1631
  0.1643   0.1656   0.1684   0.1714   0.1727   0.1734   0.1767   0.1771
  0.1776   0.1781   0.1805   0.1841   0.1853   0.1861   0.1890   0.1907
  0.1914   0.1952   0.1963   0.1981   0.1990   0.2042   0.2057   0.2073
  0.2075   0.2079   0.2102   0.2121   0.2157   0.2164   0.2186   0.2194
  0.2228   0.2236   0.2249   0.2265   0.2281   0.2302   0.2313   0.2334
  0.2355   0.2380   0.2387   0.2410   0.2420   0.2443   0.2445   0.2487
  0.2496   0.2506   0.2526   0.2555   0.2569   0.2591   0.2610   0.2623
  0.2650   0.2653   0.2670   0.2694   0.2705   0.2714   0.2735   0.2740
  0.2756   0.2789   0.2792   0.2823   0.2824   0.2845   0.2877   0.2880
  0.2898   0.2917   0.2930   0.2954   0.2967   0.2983   0.3002   0.3017
  0.3031   0.3041   0.3069   0.3087   0.3100   0.3114   0.3132   0.3151
  0.3162   0.3180   0.3192   0.3208   0.3226   0.3241   0.3258   0.3270
  0.3282   0.3297   0.3316   0.3326   0.3346   0.3351   0.3381   0.3424
  0.3447   0.3457   0.3458   0.3490   0.3492   0.3500   0.3524   0.3536
  0.3558   0.3568   0.3599   0.3616   0.3636   0.3653   0.3667   0.3677
  0.3706   0.3733   0.3743   0.3768   0.3793   0.3799   0.3813   0.3821
  0.3854   0.3864   0.3881   0.3885   0.3905   0.3937   0.3950   0.3976
  0.3993   0.3996   0.4011   0.4039   0.4053   0.4086   0.4096   0.4107
  0.4136   0.4147   0.4172   0.4196   0.4206   0.4240   0.4243   0.4259
  0.4286   0.4299   0.4347   0.4360   0.4377   0.4378   0.4406   0.4420
  0.4449   0.4490   0.4496   0.4535   0.4573   0.4582   0.4595   0.4607
  0.4612   0.4656   0.4671   0.4692   0.4710   0.4735   0.4765   0.4767
  0.4774   0.4809   0.4842   0.4848   0.4867   0.4886   0.4905   0.4928
  0.4939   0.4987   0.4998   0.5017   0.5040   0.5062   0.5088   0.5126
  0.5159   0.5172   0.5174   0.5203   0.5232   0.5256   0.5275   0.5284
  0.5311   0.5342   0.5372   0.5382   0.5399   0.5426   0.5435   0.5463
  0.5471   0.5488   0.5524   0.5555   0.5563   0.5587   0.5595   0.5623
  0.5645   0.5670   0.5696   0.5708   0.5759   0.5764   0.5776   0.5830
  0.5837   0.5856   0.5879   0.5912   0.5926   0.5952   0.5960   0.5982
  0.5995   0.6036   0.6050   0.6082   0.6087   0.6093   0.6127   0.6145
  0.6149   0.6176   0.6197   0.6219   0.6229   0.6258   0.6277   0.6297
  0.6325   0.6349   0.6375   0.6386   0.6410   0.6417   0.6446   0.6465
  0.6482   0.6493   0.6538   0.6552   0.6579   0.6604   0.6631   0.6648
  0.6660   0.6684   0.6704   0.6727   0.6747   0.6790   0.6800   0.6858
  0.6872   0.6909   0.6910   0.6925   0.6968   0.6977   0.7004   0.7031
  0.7049   0.7063   0.7098   0.7123   0.7141   0.7159   0.7193   0.7233
  0.7243   0.7266   0.7296   0.7306   0.7360   0.7373   0.7402   0.7418
  0.7453   0.7459   0.7487   0.7499   0.7527   0.7534   0.7538   0.7581
  0.7593   0.7600   0.7621   0.7662   0.7664   0.7686   0.7750   0.7779
  0.7791   0.7803   0.7865   0.7867   0.7877   0.7910   0.7922   0.7950
  0.7959   0.7982   0.8013   0.8024   0.8085   0.8087   0.8107   0.8129
  0.8188   0.8197   0.8211   0.8232   0.8254   0.8285   0.8317   0.8333
  0.8340   0.8359   0.8392   0.8409   0.8435   0.8458   0.8482   0.8495
  0.8508   0.8562   0.8587   0.8627   0.8650   0.8670   0.8697   0.8704
  0.8745   0.8770   0.8781   0.8799   0.8829   0.8877   0.8903   0.8939
  0.8975   0.8988   0.9010   0.9027   0.9066   0.9094   0.9108   0.9126
  0.9145   0.9160   0.9200   0.9234   0.9260   0.9300   0.9325   0.9365
  0.9402   0.9420   0.9437   0.9464   0.9502   0.9552   0.9572   0.9618
  0.9647   0.9652   0.9699   0.9747   0.9768   0.9800   0.9807   0.9852
  0.9856   0.9886   0.9911   0.9916   0.9970   0.9997   1.0011   1.0045
  1.0053   1.0109   1.0125   1.0165   1.0202   1.0206   1.0275   1.0300
  1.0339   1.0396   1.0449   1.0476   1.0489   1.0552   1.0574   1.0615
  1.0641   1.0688   1.0695   1.0725   1.0768   1.0822   1.0834   1.0859
  1.0902   1.0926   1.0956   1.1004   1.1052   1.1060   1.1104   1.1144
  1.1158   1.1186   1.1225   1.1253   1.1282   1.1303   1.1374   1.1398
  1.1438   1.1465   1.1482   1.1549   1.1571   1.1597   1.1650   1.1671
  1.1728   1.1745   1.1754   1.1782   1.1815   1.1845   1.1919   1.1939
  1.1959   1.2034   1.2070   1.2094   1.2110   1.2167   1.2212   1.2233
  1.2240   1.2276   1.2318   1.2355   1.2381   1.2392   1.2427   1.2433
  1.2509   1.2519   1.2609   1.2651   1.2704   1.2716   1.2744   1.2761
  1.2833   1.2868   1.2881   1.2907   1.2954   1.2957   1.3011   1.3044
  1.3082   1.3092   1.3120   1.3196   1.3218   1.3269   1.3294   1.3308
  1.3320   1.3393   1.3412   1.3428   1.3505   1.3524   1.3565   1.3611
  1.3624   1.3663   1.3676   1.3725   1.3756   1.3770   1.3805   1.3851
  1.3881   1.3916   1.3954   1.4003   1.4060   1.4105   1.4129   1.4168
  1.4170   1.4224   1.4281   1.4313   1.4341   1.4398   1.4442   1.4480
  1.4497   1.4603   1.4657   1.4685   1.4730   1.4768   1.4806   1.4824
  1.4872   1.4901   1.4916   1.4973   1.5016   1.5034   1.5110   1.5155
  1.5193   1.5210   1.5298   1.5313   1.5333   1.5409   1.5420   1.5488
  1.5532   1.5546   1.5641   1.5670   1.5732   1.5780   1.5803   1.5843
  1.5871   1.5927   1.5952   1.5991   1.6027   1.6108   1.6126   1.6149
  1.6162   1.6217   1.6265   1.6302   1.6354   1.6390   1.6432   1.6474
  1.6529   1.6558   1.6597   1.6615   1.6649   1.6686   1.6741   1.6794
  1.6806   1.6840   1.6885   1.6907   1.6974   1.7018   1.7057   1.7062
  1.7152   1.7214   1.7247   1.7289   1.7317   1.7335   1.7373   1.7388
  1.7449   1.7457   1.7530   1.7552   1.7620   1.7659   1.7707   1.7770
  1.7828   1.7853   1.7881   1.7900   1.7932   1.7946   1.7969   1.8014
  1.8048   1.8112   1.8171   1.8184   1.8215   1.8267   1.8284   1.8369
  1.8386   1.8391   1.8411   1.8465   1.8516   1.8572   1.8623   1.8665
  1.8687   1.8715   1.8748   1.8802   1.8855   1.8911   1.8922   1.8952
  1.8982   1.9053   1.9078   1.9178   1.9185   1.9229   1.9264   1.9309
  1.9342   1.9389   1.9438   1.9467   1.9516   1.9571   1.9584   1.9629
  1.9635   1.9703   1.9758   1.9765   1.9799   1.9834   1.9900   1.9918
  1.9962   2.0023   2.0039   2.0067   2.0104   2.0136   2.0157   2.0182
  2.0233   2.0289   2.0335   2.0386   2.0413   2.0429   2.0464   2.0478
  2.0504   2.0574   2.0616   2.0640   2.0656   2.0682   2.0719   2.0777
  2.0787   2.0871   2.0910   2.0945   2.0966   2.0992   2.1046   2.1051
  2.1100   2.1134   2.1151   2.1193   2.1237   2.1289   2.1309   2.1322
  2.1372   2.1395   2.1437   2.1530   2.1544   2.1568   2.1609   2.1700
  2.1707   2.1755   2.1785   2.1863   2.1901   2.1939   2.1974   2.1977
  2.2031   2.2087   2.2147   2.2173   2.2285   2.2316   2.2321   2.2397
  2.2428   2.2466   2.2513   2.2539   2.2611   2.2649   2.2662   2.2721
  2.2767   2.2827   2.2863   2.2935   2.2981   2.2993   2.3078   2.3108
  2.3128   2.3196   2.3213   2.3272   2.3388   2.3403   2.3444   2.3470
  2.3543   2.3614   2.3664   2.3681   2.3715   2.3785   2.3811   2.3880
  2.3927   2.3997   2.4016   2.4077   2.4133   2.4226   2.4262   2.4305
  2.4360   2.4378   2.4481   2.4513   2.4550   2.4587   2.4627   2.4734
  2.4799   2.4833   2.4890   2.4937   2.4972   2.5022   2.5080   2.5131
  2.5199   2.5207   2.5261   2.5286   2.5330   2.5347   2.5364   2.5456
  2.5498   2.5561   2.5630   2.5673   2.5722   2.5777   2.5786   2.5889
  2.5937   2.5951   2.6071   2.6141   2.6172   2.6219   2.6325   2.6354
  2.6403   2.6433   2.6505   2.6560   2.6614   2.6680   2.6714   2.6805
  2.6855   2.6887   2.6983   2.7079   2.7188   2.7307   2.7357   2.7418
  2.7486   2.7538   2.7561   2.7666   2.7674   2.7727   2.7818   2.7849
  2.7909   2.7934   2.7969   2.8003   2.8113   2.8174   2.8268   2.8295
  2.8357   2.8385   2.8531   2.8588   2.8721   2.8770   2.8812   2.8881
  2.8895   2.8966   2.9018   2.9084   2.9189   2.9310   2.9365   2.9415
  2.9488   2.9557   2.9648   2.9741   2.9791   2.9832   2.9975   2.9980
  3.0085   3.0164   3.0319   3.0447   3.0587   3.0687   3.0736   3.0938
  3.1019   3.1032   3.1177   3.1379   3.1580   3.1654   3.1821   3.1867
  3.1974   3.2178   3.2272   3.2589   3.2686   3.2914   3.2989   3.3104
  3.3271   3.3335   3.3541   3.3737   3.3963   3.4223   3.4314   3.4514
  3.4680   3.4895   3.5101   3.5127   3.5312   3.5336   3.5388   3.5448
  3.5572   3.5594   3.5665   3.5688   3.5746   3.5787   3.5833   3.5866
  3.5931   3.6001   3.6054   3.6107   3.6159   3.6187   3.6242   3.6309
  3.6375   3.6394   3.6440   3.6459   3.6484   3.6608   3.6685   3.6748
  3.6831   3.6855   3.7001   3.7049   3.7180   3.7328   3.7439   3.7478
  3.7531   3.7549   3.7664   3.7759   3.7790   3.7845   3.8015   3.8101
  3.8193   3.8325   3.8406   3.8539   3.8696   3.8794   3.8807   3.8828
  3.8958   3.9055   3.9201   3.9241   3.9420   3.9531   3.9662   3.9971
  4.0064   4.0338   4.0383   4.0516   4.0560   4.0711   4.0803   4.0924
  4.1028   4.1338   4.1534   4.1863   4.2119   4.2193   4.2355   4.2755
  4.2821   4.3737   4.4092   4.4234   4.4414   4.5068   4.5313   4.5742
  4.6855   4.7223   4.7606
 --------------------------------------------------------------
 
          Ground-State Mulliken Net Atomic Charges

     Atom                 Charge (a.u.)    Spin (a.u.)
  --------------------------------------------------------
      1 C                    -1.580568      -0.018051
      2 C                     0.869228      -0.001252
      3 H                    -0.766535       0.000070
      4 N                     0.347130      -0.005040
      5 H                    -0.073811      -0.000149
      6 C                     0.954941       0.000048
      7 O                    -0.925802      -0.000010
      8 C                     0.465781      -0.000854
      9 O                    -0.906432       0.000898
     10 N                     0.828362       0.006818
     11 C                     2.139759       0.009683
     12 H                    -0.517290       0.000476
     13 H                    -0.589353       0.001455
     14 C                    -0.265968       0.016653
     15 C                     0.680599      -0.002055
     16 C                     1.521627      -0.002919
     17 H                    -0.611445      -0.000460
     18 H                    -0.802860      -0.000037
     19 C                     0.654194       0.001426
     20 O                    -0.867350       0.000434
     21 N                     0.572313      -0.003410
     22 H                    -0.304739      -0.003495
     23 C                     1.017788       0.000272
     24 O                    -0.986277       0.000009
     25 C                    -1.260805      -0.014784
     26 N                     1.359418       0.012855
     27 C                     1.741704       0.002618
     28 H                    -0.778046       0.000787
     29 H                    -0.742206       0.000967
     30 C                     1.684692       0.003629
     31 H                    -0.406718       0.000097
     32 H                    -0.219256      -0.000352
     33 C                     1.405914      -0.000114
     34 H                    -0.626156      -0.000004
     35 H                    -0.555810       0.000077
     36 C                     1.305444      -0.000615
     37 H                    -1.080293       0.001022
     38 H                    -0.675474       0.000296
     39 C                     1.234720      -0.000049
     40 H                    -0.500460      -0.000339
     41 H                    -0.610771       0.000084
     42 C                     0.871118       0.000593
     43 H                    -0.668226       0.000135
     44 C                     1.469806       0.001016
     45 H                    -0.400365       0.000435
     46 H                    -0.601657      -0.000224
     47 C                     2.177977       0.006951
     48 H                    -0.365202       0.000519
     49 H                    -0.465777       0.000426
     50 C                     1.012992      -0.000130
     51 H                    -1.263762      -0.000951
     52 H                    -0.644763       0.000101
     53 C                     1.330041       0.000691
     54 H                    -0.508087      -0.000211
     55 H                    -0.604401       0.000065
     56 O                    -0.874431       0.000136
     57 O                    -0.929104       0.000115
     58 O                    -1.143846       0.223715
     59 Fe                    2.064990       4.215466
     60 O                    -0.939022       0.099615
     61 O                    -0.433662       0.094272
     62 O                    -1.154844       0.128444
     63 O                    -0.811089       0.064382
     64 O                    -0.859736       0.010143
     65 O                    -1.234687       0.145906
     66 H                    -0.133977       0.000091
     67 H                    -0.125393       0.000928
     68 C                     1.311236      -0.001084
     69 H                    -0.586104       0.000407
     70 H                    -0.619218       0.001362
  --------------------------------------------------------
  Sum of atomic charges =    -3.000000
  Sum of spin   charges =     5.000000

 -----------------------------------------------------------------
                    Cartesian Multipole Moments
 -----------------------------------------------------------------
    Charge (ESU x 10^10)
               -14.4096
    Dipole Moment (Debye)
         X      -3.3591      Y      25.6374      Z     -11.9497
       Tot      28.4843
    Quadrupole Moments (Debye-Ang)
        XX    -469.5562     XY      13.1441     YY    -329.2656
        XZ      -3.2172     YZ     -38.4781     ZZ    -340.8573
    Octopole Moments (Debye-Ang^2)
       XXX    -465.3368    XXY     651.1506    XYY     -24.1789
       YYY     321.6660    XXZ     116.0532    XYZ      47.8700
       YYZ     -25.0935    XZZ     133.9798    YZZ     156.7029
       ZZZ    -240.2162
    Hexadecapole Moments (Debye-Ang^3)
      XXXX  -20799.1788   XXXY     793.6951   XXYY   -4404.8424
      XYYY     241.0298   YYYY   -7264.4005   XXXZ     171.0330
      XXYZ    -555.7815   XYYZ     -54.0109   YYYZ     256.4003
      XXZZ   -4041.8910   XYZZ    -296.2592   YYZZ   -2163.3805
      XZZZ     512.0048   YZZZ     252.7253   ZZZZ   -5967.5710
 -----------------------------------------------------------------
 Total job time:  371641.32s(wall), 6740538.56s(cpu) 
 Wed Mar 13 19:19:51 2024

        *************************************************************
        *                                                           *
        *  Thank you very much for using Q-Chem.  Have a nice day.  *
        *                                                           *
        *************************************************************


