
Running Job 1 of 1 C_FeABO_ctL_C_3sextet_SfS_b3lypD3bj_ccpVDZ_pcmH2O_opt_2.in
qchem C_FeABO_ctL_C_3sextet_SfS_b3lypD3bj_ccpVDZ_pcmH2O_opt_2.in_3207233.0 /data/scratch/C_FeABO_ctL_C_3sextet_SfS_b3lypD3bj_ccpVDZ_pcmH2O_opt_220231222065023/ 0
/opt/qchem/6.0.1/exe/qcprog.exe_s C_FeABO_ctL_C_3sextet_SfS_b3lypD3bj_ccpVDZ_pcmH2O_opt_2.in_3207233.0 /data/scratch/C_FeABO_ctL_C_3sextet_SfS_b3lypD3bj_ccpVDZ_pcmH2O_opt_220231222065023/
                  Welcome to Q-Chem
     A Quantum Leap Into The Future Of Chemistry


 Q-Chem 6.0, Q-Chem, Inc., Pleasanton, CA (2022)

 E. Epifanovsky,  A. T. B. Gilbert,  Xintian Feng,  Joonho Lee,  Yuezhi Mao,  
 N. Mardirossian,  P. Pokhilko,  A. White,  M. Wormit,  M. P. Coons,  
 A. L. Dempwolff,  Zhengting Gan,  D. Hait,  P. R. Horn,  L. D. Jacobson,  
 I. Kaliman,  J. Kussmann,  A. W. Lange,  Ka Un Lao,  D. S. Levine,  Jie Liu,  
 S. C. McKenzie,  A. F. Morrison,  K. Nanda,  F. Plasser,  D. R. Rehn,  
 M. L. Vidal,  Zhi-Qiang You,  Ying Zhu,  B. Alam,  B. Albrecht,  
 A. Aldossary,  E. Alguire,  J. H. Andersen,  V. Athavale,  D. Barton,  
 K. Begam,  A. Behn,  N. Bellonzi,  Y. A. Bernard,  E. J. Berquist,  
 H. Burton,  A. Carreras,  K. Carter-Fenk,  Romit Chakraborty,  
 Chandrima Chakravarty,  Junhan Chen,  A. D. Chien,  K. D. Closser,  
 V. Cofer-Shabica,  L. Cunha,  S. Dasgupta,  Jia Deng,  M. de Wergifosse,  
 M. Diedenhofen,  Hainam Do,  S. Ehlert,  Po-Tung Fang,  S. Fatehi,  
 Qingguo Feng,  T. Friedhoff,  B. Ganoe,  J. Gayvert,  Qinghui Ge,  
 G. Gidofalvi,  M. Goldey,  J. Gomes,  C. Gonzalez-Espinoza,  S. Gulania,  
 A. Gunina,  J. A. Gyamfi,  M. W. D. Hanson-Heine,  P. H. P. Harbach,  
 A. W. Hauser,  M. F. Herbst,  M. Hernandez Vera,  M. Hodecker,  
 Z. C. Holden,  S. Houck,  Xunkun Huang,  Kerwin Hui,  B. C. Huynh,  
 K. Ikeda,  M. Ivanov,  Hyunjun Ji,  Zuxin Jin,  Hanjie Jiang,  B. Kaduk,  
 S. Kaehler,  R. Kang,  K. Khistyaev,  Jaehoon Kim,  Yongbin Kim,  
 P. Klunzinger,  Z. Koczor-Benda,  Joong Hoon Koh,  D. Kosenkov,  
 Saikiran Kotaru,  L. Koulias,  T. Kowalczyk,  C. M. Krauter,  K. Kue,  
 A. Kunitsa,  T. Kus,  A. Landau,  K. V. Lawler,  D. Lefrancois,  S. Lehtola,  
 Rain Li,  Shaozhi Li,  Yi-Pei Li,  Jiashu Liang,  M. Liebenthal,  
 Hung-Hsuan Lin,  You-Sheng Lin,  Fenglai Liu,  Kuan-Yu Liu,  
 M. Loipersberger,  A. Luenser,  C. Malbon,  A. Manjanath,  P. Manohar,  
 E. Mansoor,  S. F. Manzer,  Shan-Ping Mao,  A. V. Marenich,  T. Markovich,  
 S. Mason,  F. Matz,  S. A. Maurer,  P. F. McLaughlin,  M. F. S. J. Menger,  
 J.-M. Mewes,  S. A. Mewes,  P. Morgante,  Mohammad Mostafanejad,  
 J. W. Mullinax,  K. J. Oosterbaan,  G. Paran,  V. Parravicini,  
 Alexander C. Paul,  Suranjan K. Paul,  F. Pavosevic,  Zheng Pei,  S. Prager,  
 E. I. Proynov,  E. Ramos,  B. Rana,  A. E. Rask,  A. Rettig,  R. M. Richard,  
 F. Rob,  E. Rossomme,  T. Scheele,  M. Scheurer,  M. Schneider,  
 P. E. Schneider,  N. Sergueev,  S. M. Sharada,  Hengyuan Shen,  
 W. Skomorowski,  D. W. Small,  C. J. Stein,  Yingli Su,  Yu-Chuan Su,  
 E. J. Sundstrom,  Zhen Tao,  J. Thirman,  Hung-Yi Tsai,  T. Tsuchimochi,  
 N. M. Tubman,  C. Utku,  S. P. Veccham,  O. Vydrov,  J. Wenzel,  
 Jonathan Wong,  J. Witte,  A. Yamada,  Chou-Hsun Yang,  Kun Yao,  
 S. Yeganeh,  S. R. Yost,  A. Zech,  F. Zeller,  Igor Ying Zhang,  
 Xing Zhang,  Yu Zhang,  D. Zuev,  A. Aspuru-Guzik,  A. T. Bell,  
 N. A. Besley,  K. B. Bravaya,  B. R. Brooks,  D. Casanova,  Jeng-Da Chai,  
 Hsing-Ta Chen,  S. Coriani,  C. J. Cramer,  A. E. DePrince, III,  
 R. A. DiStasio Jr.,  A. Dreuw,  B. D. Dunietz,  T. R. Furlani,  
 W. A. Goddard III,  S. Grimme,  S. Hammes-Schiffer,  T. Head-Gordon,  
 W. J. Hehre,  Chao-Ping Hsu,  T.-C. Jagau,  Yousung Jung,  A. Klamt,  
 Jing Kong,  D. S. Lambrecht,  Xiangyuan Li,  WanZhen Liang,  N. J. Mayhall,  
 C. W. McCurdy,  J. B. Neaton,  T. Neudecker,  C. Ochsenfeld,  
 J. A. Parkhill,  R. Peverati,  V. A. Rassolov,  Haisheng Ren,  Yihan Shao,  
 L. V. Slipchenko,  R. P. Steele,  J. E. Subotnik,  A. J. W. Thom,  
 A. Tkatchenko,  D. G. Truhlar,  T. Van Voorhis,  Fan Wang,  
 T. A. Wesolowski,  K. B. Whaley,  H. L. Woodcock III,  P. M. Zimmerman,  
 S. Faraji,  P. M. W. Gill,  M. Head-Gordon,  J. M. Herbert,  A. I. Krylov

 Contributors to earlier versions of Q-Chem not listed above: 
 R. D. Adamson,  B. Austin,  R. Baer,  J. Baker,  G. J. O. Beran,  
 K. Brandhorst,  S. T. Brown,  E. F. C. Byrd,  Arup K. Chakraborty,  
 G. K. L. Chan,  Chun-Min Chang,  Yunqing Chen,  C.-L. Cheng,  
 Siu Hung Chien,  D. M. Chipman,  D. L. Crittenden,  H. Dachsel,  
 R. J. Doerksen,  A. D. Dutoi,  R. G. Edgar,  J. Fosso-Tande,  
 L. Fusti-Molnar,  D. Ghosh,  A. Ghysels,  A. Golubeva-Zadorozhnaya,  
 J. Gonthier,  M. S. Gordon,  S. R. Gwaltney,  G. Hawkins,  J. E. Herr,  
 A. Heyden,  S. Hirata,  E. G. Hohenstein,  G. Kedziora,  F. J. Keil,  
 C. Kelley,  Jihan Kim,  R. A. King,  R. Z. Khaliullin,  P. P. Korambath,  
 W. Kurlancheek,  A. Laurent,  A. M. Lee,  M. S. Lee,  S. V. Levchenko,  
 Ching Yeh Lin,  D. Liotard,  E. Livshits,  R. C. Lochan,  I. Lotan,  
 L. A. Martinez-Martinez,  P. E. Maslen,  N. Nair,  D. P. O'Neill,  
 D. Neuhauser,  E. Neuscamman,  C. M. Oana,  R. Olivares-Amaya,  R. Olson,  
 T. M. Perrine,  B. Peters,  P. A. Pieniazek,  A. Prociuk,  Y. M. Rhee,  
 J. Ritchie,  M. A. Rohrdanz,  E. Rosta,  N. J. Russ,  H. F. Schaefer III,  
 M. W. Schmidt,  N. E. Schultz,  S. Sharma,  N. Shenvi,  C. D. Sherrill,  
 A. C. Simmonett,  A. Sodt,  T. Stein,  D. Stuck,  K. S. Thanthiriwatte,  
 V. Vanovschi,  L. Vogt,  Tao Wang,  A. Warshel,  M. A. Watson,  
 C. F. Williams,  Q. Wu,  X. Xu,  Jun Yang,  W. Zhang,  Yan Zhao

   Please cite Q-Chem as follows:
  "Software for the frontiers of quantum chemistry:
   An overview of developments in the Q-Chem 5 package"
   J. Chem. Phys. 155, 084801 (2021)
   https://doi.org/10.1063/5.0055522 (open access)

 Q-Chem 6.0.2 for Intel X86 EM64T Linux

 Parts of Q-Chem use Armadillo 9.900.5 (Nocturnal Misbehaviour).
 http://arma.sourceforge.net/

 Q-Chem begins on Fri Dec 22 06:50:24 2023  

 Host: 
0

     Scratch files written to /data/scratch/C_FeABO_ctL_C_3sextet_SfS_b3lypD3bj_ccpVDZ_pcmH2O_opt_220231222065023//
 Dec722 |scratch|qcdevops|jenkins|workspace|build_RNUM 8907   
 Processing $rem in /opt/qchem/6.0.1/config/preferences:
 Processing $rem in /home/sgardner/.qchemrc:
 Symmetry turned off for PCM/SM12/SMD calculation

 Checking the input file for inconsistencies... 	...done.

--------------------------------------------------------------
User input:
--------------------------------------------------------------
$molecule
-3 6
C   -2.7879826    1.9170323    1.5546301
C   -2.8345311   -1.4324396   -1.3806912
H   -3.4397907   -2.3542762   -1.3032470
N   -1.9328605   -1.3752210   -0.2433735
H   -0.9486404   -1.1984578   -0.4442866
C   -2.0051660   -1.5354275   -2.6951254
O   -2.6746002   -1.6035724   -3.7554551
C   -2.2727040   -1.5913203    1.0394835
O   -3.4523957   -1.7382539    1.4136708
N   -2.4950197    2.8996433    0.6849876
C   -3.4225771    3.4039472   -0.3427488
H   -2.7997937    4.0489458   -0.9744318
H   -4.1868036    4.0393228    0.1303844
C   -1.1211345   -1.8401079    2.0135704
H   -0.8620518   -2.8959071    1.8366941
H   -1.5257945   -1.7659727    3.0306240
C    0.2040373   -1.0135704    1.9313542
C    0.3080095    0.0028281    3.1108693
C    1.4238308   -1.9646460    2.1382399
H    1.2046558   -2.6663620    2.9574516
H    2.2961945   -1.3628923    2.4321162
C    1.7516923   -2.7360716    0.8699192
O    0.9428867   -3.5039964    0.3204163
N    2.9870664   -2.5066100    0.3882452
H    3.6463913   -1.9030103    0.8782115
C    5.0649081   -2.7394299   -0.8614376
O    5.7143569   -3.2878233   -1.7853755
C    2.5708833    2.3216410   -0.4144040
N    1.8590246    1.8738097   -1.4391278
C    2.3315093    1.5251503   -2.7772271
H    3.3619359    1.8876443   -2.8776024
H    1.7010424    2.0741145   -3.4945185
C    4.0460943    2.5877342   -0.5280476
H    4.3496145    3.2031664    0.3283243
H    4.3131967    3.1067106   -1.4583426
C    2.2581953    0.0162246   -3.0319199
H    1.2080957   -0.3115254   -2.9959597
H    2.6211025   -0.1652060   -4.0588793
C    3.0841744   -0.7708696   -2.0166044
H    4.1541411   -0.5248073   -2.1377877
H    2.8016112   -0.4336315   -1.0068813
C    2.8858786   -2.2859936   -2.0755587
H    1.8089710   -2.5171153   -2.0911189
H    3.3324029   -2.7054284   -2.9921434
C    3.5297247   -2.9974068   -0.8662733
H    3.3483655   -4.0808714   -0.9531440
C   -4.0857522    2.2769741   -1.1550432
H   -4.5516256    2.7301750   -2.0464430
H   -4.9191526    1.8708234   -0.5593086
C   -4.1926448    1.7247475    2.0505364
H   -4.1718867    1.7650984    3.1507869
H   -4.8997037    2.4741697    1.6772564
C   -3.1453090    1.1166260   -1.5397943
H   -2.2756568    1.1037142   -0.8689082
H   -2.7386173    1.2675702   -2.5538993
C   -3.8234153   -0.2533969   -1.4396084
H   -4.4339600   -0.2892191   -0.5242869
H   -4.4936801   -0.4234114   -2.2968757
O   -0.7446526   -1.5326147   -2.5853250
O    5.5065551   -1.9726615    0.0424993
O    0.3621193   -0.3401125    0.7154095
Fe    0.1151072    1.5587941    0.8005644
O    0.6610412    1.2017351    2.7643518
O   -1.8555527    1.1869420    1.9714744
O   -1.1735550    2.9902400    0.3290234
O    1.9727257    2.4900432    0.7081142
O    0.1284944   -0.3740540    4.2765206
O    0.5446830    1.6296174   -1.2119871
H   -4.5256127    0.7149645    1.7655592
H    4.6042505    1.6373650   -0.4909686
$end

$rem
BASIS  =  gen
DFT_D  =  D3_BJ
GUI  =  2
JOB_TYPE  =  Optimization
METHOD  =  B3LYP
SCF_CONVERGENCE  =  8
SOLVENT_METHOD  =  PCM
$end

$pcm
THEORY  CPCM
$end

$solvent
DIELECTRIC  78.39
$end

$van_der_waals
26   2.44
$end

!----------------------------------------------------------------------
! Basis Set Exchange
! Basis set: cc-pVDZ
!----------------------------------------------------------------------

$rem
BASIS GEN
PURECART 11
$end

$basis
H     0
S   4   1.00
1.301000D+01           1.968500D-02
1.962000D+00           1.379770D-01
4.446000D-01           4.781480D-01
1.220000D-01           5.012400D-01
S   1   1.00
1.220000D-01           1.000000D+00
P   1   1.00
7.270000D-01           1.0000000
****
C     0
S   9   1.00
6.665000D+03           6.920000D-04
1.000000D+03           5.329000D-03
2.280000D+02           2.707700D-02
6.471000D+01           1.017180D-01
2.106000D+01           2.747400D-01
7.495000D+00           4.485640D-01
2.797000D+00           2.850740D-01
5.215000D-01           1.520400D-02
1.596000D-01          -3.191000D-03
S   9   1.00
6.665000D+03          -1.460000D-04
1.000000D+03          -1.154000D-03
2.280000D+02          -5.725000D-03
6.471000D+01          -2.331200D-02
2.106000D+01          -6.395500D-02
7.495000D+00          -1.499810D-01
2.797000D+00          -1.272620D-01
5.215000D-01           5.445290D-01
1.596000D-01           5.804960D-01
S   1   1.00
1.596000D-01           1.000000D+00
P   4   1.00
9.439000D+00           3.810900D-02
2.002000D+00           2.094800D-01
5.456000D-01           5.085570D-01
1.517000D-01           4.688420D-01
P   1   1.00
1.517000D-01           1.000000D+00
D   1   1.00
5.500000D-01           1.0000000
****
N     0
S   9   1.00
9.046000D+03           7.000000D-04
1.357000D+03           5.389000D-03
3.093000D+02           2.740600D-02
8.773000D+01           1.032070D-01
2.856000D+01           2.787230D-01
1.021000D+01           4.485400D-01
3.838000D+00           2.782380D-01
7.466000D-01           1.544000D-02
2.248000D-01          -2.864000D-03
S   9   1.00
9.046000D+03          -1.530000D-04
1.357000D+03          -1.208000D-03
3.093000D+02          -5.992000D-03
8.773000D+01          -2.454400D-02
2.856000D+01          -6.745900D-02
1.021000D+01          -1.580780D-01
3.838000D+00          -1.218310D-01
7.466000D-01           5.490030D-01
2.248000D-01           5.788150D-01
S   1   1.00
2.248000D-01           1.000000D+00
P   4   1.00
1.355000D+01           3.991900D-02
2.917000D+00           2.171690D-01
7.973000D-01           5.103190D-01
2.185000D-01           4.622140D-01
P   1   1.00
2.185000D-01           1.000000D+00
D   1   1.00
8.170000D-01           1.0000000
****
O     0
S   9   1.00
1.172000D+04           7.100000D-04
1.759000D+03           5.470000D-03
4.008000D+02           2.783700D-02
1.137000D+02           1.048000D-01
3.703000D+01           2.830620D-01
1.327000D+01           4.487190D-01
5.025000D+00           2.709520D-01
1.013000D+00           1.545800D-02
3.023000D-01          -2.585000D-03
S   9   1.00
1.172000D+04          -1.600000D-04
1.759000D+03          -1.263000D-03
4.008000D+02          -6.267000D-03
1.137000D+02          -2.571600D-02
3.703000D+01          -7.092400D-02
1.327000D+01          -1.654110D-01
5.025000D+00          -1.169550D-01
1.013000D+00           5.573680D-01
3.023000D-01           5.727590D-01
S   1   1.00
3.023000D-01           1.000000D+00
P   4   1.00
1.770000D+01           4.301800D-02
3.854000D+00           2.289130D-01
1.046000D+00           5.087280D-01
2.753000D-01           4.605310D-01
P   1   1.00
2.753000D-01           1.000000D+00
D   1   1.00
1.185000D+00           1.0000000
****
Fe     0
S   20   1.00
4.316265D+06           8.048803D-06
6.463424D+05           6.258306D-05
1.470897D+05           3.290239D-04
4.166152D+04           1.387355D-03
1.359077D+04           5.023256D-03
4.905750D+03           1.610140D-02
1.912746D+03           4.590034D-02
7.926043D+02           1.136154D-01
3.448065D+02           2.283869D-01
1.558999D+02           3.221159D-01
7.223091D+01           2.383661D-01
3.272506D+01           7.404667D-02
1.566762D+01           9.214197D-02
7.503483D+00           9.339790D-02
3.312223D+00           1.573965D-02
1.558471D+00          -4.186682D-04
6.839140D-01           5.376318D-05
1.467570D-01          -3.816654D-05
7.058300D-02           4.319603D-05
3.144900D-02          -3.401019D-06
S   20   1.00
4.316265D+06          -4.155954D-06
6.463424D+05          -3.231401D-05
1.470897D+05          -1.699525D-04
4.166152D+04          -7.171369D-04
1.359077D+04          -2.603625D-03
4.905750D+03          -8.399109D-03
1.912746D+03          -2.434109D-02
7.926043D+02          -6.251948D-02
3.448065D+02          -1.365929D-01
1.558999D+02          -2.312707D-01
7.223091D+01          -2.383734D-01
3.272506D+01           3.123837D-02
1.566762D+01           5.086818D-01
7.503483D+00           4.987695D-01
3.312223D+00           9.033552D-02
1.558471D+00          -6.005337D-03
6.839140D-01           2.312454D-04
1.467570D-01          -5.643680D-04
7.058300D-02           4.992260D-04
3.144900D-02          -1.015293D-04
S   20   1.00
4.316265D+06           9.532178D-07
6.463424D+05           7.414605D-06
1.470897D+05           3.898393D-05
4.166152D+04           1.647152D-04
1.359077D+04           5.985980D-04
4.905750D+03           1.942390D-03
1.912746D+03           5.687237D-03
7.926043D+02           1.501329D-02
3.448065D+02           3.452455D-02
1.558999D+02           6.495820D-02
7.223091D+01           7.716194D-02
3.272506D+01          -1.873411D-02
1.566762D+01          -3.009185D-01
7.503483D+00          -4.554661D-01
3.312223D+00           1.286463D-01
1.558471D+00           7.183316D-01
6.839140D-01           4.051743D-01
1.467570D-01           2.168227D-02
7.058300D-02          -8.343566D-03
3.144900D-02           3.658979D-03
S   20   1.00
4.316265D+06          -2.063008D-07
6.463424D+05          -1.604169D-06
1.470897D+05          -8.438437D-06
4.166152D+04          -3.563151D-05
1.359077D+04          -1.295998D-04
4.905750D+03          -4.201534D-04
1.912746D+03          -1.231954D-03
7.926043D+02          -3.248922D-03
3.448065D+02          -7.493717D-03
1.558999D+02          -1.410102D-02
7.223091D+01          -1.691600D-02
3.272506D+01           4.218996D-03
1.566762D+01           6.833810D-02
7.503483D+00           1.098201D-01
3.312223D+00          -4.009005D-02
1.558471D+00          -2.174739D-01
6.839140D-01          -2.465135D-01
1.467570D-01           2.731435D-01
7.058300D-02           5.748321D-01
3.144900D-02           3.012713D-01
S   20   1.00
4.316265D+06          -4.009367D-07
6.463424D+05          -3.189255D-06
1.470897D+05          -1.623079D-05
4.166152D+04          -7.157920D-05
1.359077D+04          -2.463958D-04
4.905750D+03          -8.544907D-04
1.912746D+03          -2.307593D-03
7.926043D+02          -6.728292D-03
3.448065D+02          -1.366165D-02
1.558999D+02          -3.062240D-02
7.223091D+01          -2.631137D-02
3.272506D+01          -9.760183D-03
1.566762D+01           1.801906D-01
7.503483D+00           1.529634D-01
3.312223D+00           5.505413D-02
1.558471D+00          -9.551364D-01
6.839140D-01           2.586813D-01
1.467570D-01           1.834049D+00
7.058300D-02          -9.333240D-01
3.144900D-02          -6.981605D-01
S   1   1.00
3.144900D-02           1.000000D+00
P   16   1.00
1.774569D+04           4.100000D-05
4.200721D+03           3.690000D-04
1.364429D+03           2.129000D-03
5.220806D+02           9.369000D-03
2.214595D+02           3.309700D-02
1.009096D+02           9.443100D-02
4.840115D+01           2.080770D-01
2.398536D+01           3.323330D-01
1.218250D+01           3.329870D-01
6.242298D+00           1.568430D-01
3.110944D+00           2.154900D-02
1.509958D+00          -2.095000D-03
7.108450D-01          -1.739000D-03
2.731900D-01          -3.000000D-04
1.042330D-01           2.900000D-05
3.829100D-02          -1.100000D-05
P   16   1.00
1.774569D+04          -1.500000D-05
4.200721D+03          -1.300000D-04
1.364429D+03          -7.510000D-04
5.220806D+02          -3.329000D-03
2.214595D+02          -1.191200D-02
1.009096D+02          -3.493300D-02
4.840115D+01          -7.998900D-02
2.398536D+01          -1.346360D-01
1.218250D+01          -1.385980D-01
6.242298D+00           3.027800D-02
3.110944D+00           3.332160D-01
1.509958D+00           4.561530D-01
7.108450D-01           2.850510D-01
2.731900D-01           4.614400D-02
1.042330D-01          -3.249000D-03
3.829100D-02           1.357000D-03
P   16   1.00
1.774569D+04           5.000000D-06
4.200721D+03           4.200000D-05
1.364429D+03           2.410000D-04
5.220806D+02           1.085000D-03
2.214595D+02           3.831000D-03
1.009096D+02           1.142300D-02
4.840115D+01           2.579200D-02
2.398536D+01           4.481800D-02
1.218250D+01           4.459800D-02
6.242298D+00          -1.117700D-02
3.110944D+00          -1.381340D-01
1.509958D+00          -1.882850D-01
7.108450D-01          -1.073990D-01
2.731900D-01           4.448630D-01
1.042330D-01           6.402390D-01
3.829100D-02           6.445700D-02
P   16   1.00
1.774569D+04           3.000000D-06
4.200721D+03           2.900000D-05
1.364429D+03           1.650000D-04
5.220806D+02           7.340000D-04
2.214595D+02           2.626000D-03
1.009096D+02           7.725000D-03
4.840115D+01           1.773300D-02
2.398536D+01           3.005500D-02
1.218250D+01           3.109400D-02
6.242298D+00          -1.004800D-02
3.110944D+00          -8.830600D-02
1.509958D+00          -1.298240D-01
7.108450D-01          -7.693700D-02
2.731900D-01           2.126610D-01
1.042330D-01           5.730610D-01
3.829100D-02           3.696510D-01
P   1   1.00
3.829100D-02           1.000000D+00
D   8   1.00
1.133440D+02           3.530000D-03
3.364140D+01           2.578400D-02
1.233100D+01           9.911900D-02
4.994780D+00           2.390730D-01
2.072800D+00           3.571990D-01
8.307530D-01           3.621880D-01
3.091780D-01           2.364610D-01
1.001300D-01           6.011800D-02
D   8   1.00
1.133440D+02          -3.890000D-03
3.364140D+01          -2.844200D-02
1.233100D+01          -1.124290D-01
4.994780D+00          -2.742570D-01
2.072800D+00          -3.155460D-01
8.307530D-01           5.710900D-02
3.091780D-01           5.636040D-01
1.001300D-01           3.846370D-01
D   1   1.00
1.001300D-01           1.000000D+00
F   2   1.00
3.224300D+00           4.222490D-01
7.758000D-01           7.714680D-01
****
$end


--------------------------------------------------------------
 Adding empirical dispersion correction 
 ----------------------------------------------------------------
 Doing -D3(BJ) with
 s6  =   1.00000
 s8  =   1.98890
 a1  =   0.39810
 a2  =   4.42110
 -D3 energy without 3body term =     -0.1790415844 hartrees
 ----------------------------------------------------------------
             Standard Nuclear Orientation (Angstroms)
    I     Atom           X                Y                Z
 ----------------------------------------------------------------
    1      C      -2.7879826000     1.9170323000     1.5546301000
    2      C      -2.8345311000    -1.4324396000    -1.3806912000
    3      H      -3.4397907000    -2.3542762000    -1.3032470000
    4      N      -1.9328605000    -1.3752210000    -0.2433735000
    5      H      -0.9486404000    -1.1984578000    -0.4442866000
    6      C      -2.0051660000    -1.5354275000    -2.6951254000
    7      O      -2.6746002000    -1.6035724000    -3.7554551000
    8      C      -2.2727040000    -1.5913203000     1.0394835000
    9      O      -3.4523957000    -1.7382539000     1.4136708000
   10      N      -2.4950197000     2.8996433000     0.6849876000
   11      C      -3.4225771000     3.4039472000    -0.3427488000
   12      H      -2.7997937000     4.0489458000    -0.9744318000
   13      H      -4.1868036000     4.0393228000     0.1303844000
   14      C      -1.1211345000    -1.8401079000     2.0135704000
   15      H      -0.8620518000    -2.8959071000     1.8366941000
   16      H      -1.5257945000    -1.7659727000     3.0306240000
   17      C       0.2040373000    -1.0135704000     1.9313542000
   18      C       0.3080095000     0.0028281000     3.1108693000
   19      C       1.4238308000    -1.9646460000     2.1382399000
   20      H       1.2046558000    -2.6663620000     2.9574516000
   21      H       2.2961945000    -1.3628923000     2.4321162000
   22      C       1.7516923000    -2.7360716000     0.8699192000
   23      O       0.9428867000    -3.5039964000     0.3204163000
   24      N       2.9870664000    -2.5066100000     0.3882452000
   25      H       3.6463913000    -1.9030103000     0.8782115000
   26      C       5.0649081000    -2.7394299000    -0.8614376000
   27      O       5.7143569000    -3.2878233000    -1.7853755000
   28      C       2.5708833000     2.3216410000    -0.4144040000
   29      N       1.8590246000     1.8738097000    -1.4391278000
   30      C       2.3315093000     1.5251503000    -2.7772271000
   31      H       3.3619359000     1.8876443000    -2.8776024000
   32      H       1.7010424000     2.0741145000    -3.4945185000
   33      C       4.0460943000     2.5877342000    -0.5280476000
   34      H       4.3496145000     3.2031664000     0.3283243000
   35      H       4.3131967000     3.1067106000    -1.4583426000
   36      C       2.2581953000     0.0162246000    -3.0319199000
   37      H       1.2080957000    -0.3115254000    -2.9959597000
   38      H       2.6211025000    -0.1652060000    -4.0588793000
   39      C       3.0841744000    -0.7708696000    -2.0166044000
   40      H       4.1541411000    -0.5248073000    -2.1377877000
   41      H       2.8016112000    -0.4336315000    -1.0068813000
   42      C       2.8858786000    -2.2859936000    -2.0755587000
   43      H       1.8089710000    -2.5171153000    -2.0911189000
   44      H       3.3324029000    -2.7054284000    -2.9921434000
   45      C       3.5297247000    -2.9974068000    -0.8662733000
   46      H       3.3483655000    -4.0808714000    -0.9531440000
   47      C      -4.0857522000     2.2769741000    -1.1550432000
   48      H      -4.5516256000     2.7301750000    -2.0464430000
   49      H      -4.9191526000     1.8708234000    -0.5593086000
   50      C      -4.1926448000     1.7247475000     2.0505364000
   51      H      -4.1718867000     1.7650984000     3.1507869000
   52      H      -4.8997037000     2.4741697000     1.6772564000
   53      C      -3.1453090000     1.1166260000    -1.5397943000
   54      H      -2.2756568000     1.1037142000    -0.8689082000
   55      H      -2.7386173000     1.2675702000    -2.5538993000
   56      C      -3.8234153000    -0.2533969000    -1.4396084000
   57      H      -4.4339600000    -0.2892191000    -0.5242869000
   58      H      -4.4936801000    -0.4234114000    -2.2968757000
   59      O      -0.7446526000    -1.5326147000    -2.5853250000
   60      O       5.5065551000    -1.9726615000     0.0424993000
   61      O       0.3621193000    -0.3401125000     0.7154095000
   62      Fe      0.1151072000     1.5587941000     0.8005644000
   63      O       0.6610412000     1.2017351000     2.7643518000
   64      O      -1.8555527000     1.1869420000     1.9714744000
   65      O      -1.1735550000     2.9902400000     0.3290234000
   66      O       1.9727257000     2.4900432000     0.7081142000
   67      O       0.1284944000    -0.3740540000     4.2765206000
   68      O       0.5446830000     1.6296174000    -1.2119871000
   69      H      -4.5256127000     0.7149645000     1.7655592000
   70      H       4.6042505000     1.6373650000    -0.4909686000
 ----------------------------------------------------------------
 Nuclear Repulsion Energy =        6282.72429317 hartrees
 There are      164 alpha and      159 beta electrons
 Requested basis set is non-standard
 There are 339 shells and 739 basis functions

 Total QAlloc Memory Limit   8000 MB
 Mega-Array Size       188 MB
 MEM_STATIC part       192 MB

 -----------------------------------------------------------------------
                STARTING GEOMETRY OPTIMIZER USING LIBOPT3
                by Peter F. McLaughlin, Yu Zhang, Evgeny Epifanovsky
 -----------------------------------------------------------------------

              Initial Energy and Gradient Calculation
   -- Checking Topology for Ill-Behaving Coordinates --

 -------------------------------------------
   Coordinate       |  Removed | Additions 
 -------------------------------------------
	Bonds                     0          0
	Angles                    0          0
	Torsions                  0          0
	Co-Linear Type5s          0          0
	Co-Linear Type6s          0          0
 -------------------------------------------
     Done Checking Topology
 Adding empirical dispersion correction 
 ----------------------------------------------------------------
 Doing -D3(BJ) with
 s6  =   1.00000
 s8  =   1.98890
 a1  =   0.39810
 a2  =   4.42110
 -D3 energy without 3body term =     -0.1790415844 hartrees
 ----------------------------------------------------------------
             Standard Nuclear Orientation (Angstroms)
    I     Atom           X                Y                Z
 ----------------------------------------------------------------
    1      C      -2.7879826000     1.9170323000     1.5546301000
    2      C      -2.8345311000    -1.4324396000    -1.3806912000
    3      H      -3.4397907000    -2.3542762000    -1.3032470000
    4      N      -1.9328605000    -1.3752210000    -0.2433735000
    5      H      -0.9486404000    -1.1984578000    -0.4442866000
    6      C      -2.0051660000    -1.5354275000    -2.6951254000
    7      O      -2.6746002000    -1.6035724000    -3.7554551000
    8      C      -2.2727040000    -1.5913203000     1.0394835000
    9      O      -3.4523957000    -1.7382539000     1.4136708000
   10      N      -2.4950197000     2.8996433000     0.6849876000
   11      C      -3.4225771000     3.4039472000    -0.3427488000
   12      H      -2.7997937000     4.0489458000    -0.9744318000
   13      H      -4.1868036000     4.0393228000     0.1303844000
   14      C      -1.1211345000    -1.8401079000     2.0135704000
   15      H      -0.8620518000    -2.8959071000     1.8366941000
   16      H      -1.5257945000    -1.7659727000     3.0306240000
   17      C       0.2040373000    -1.0135704000     1.9313542000
   18      C       0.3080095000     0.0028281000     3.1108693000
   19      C       1.4238308000    -1.9646460000     2.1382399000
   20      H       1.2046558000    -2.6663620000     2.9574516000
   21      H       2.2961945000    -1.3628923000     2.4321162000
   22      C       1.7516923000    -2.7360716000     0.8699192000
   23      O       0.9428867000    -3.5039964000     0.3204163000
   24      N       2.9870664000    -2.5066100000     0.3882452000
   25      H       3.6463913000    -1.9030103000     0.8782115000
   26      C       5.0649081000    -2.7394299000    -0.8614376000
   27      O       5.7143569000    -3.2878233000    -1.7853755000
   28      C       2.5708833000     2.3216410000    -0.4144040000
   29      N       1.8590246000     1.8738097000    -1.4391278000
   30      C       2.3315093000     1.5251503000    -2.7772271000
   31      H       3.3619359000     1.8876443000    -2.8776024000
   32      H       1.7010424000     2.0741145000    -3.4945185000
   33      C       4.0460943000     2.5877342000    -0.5280476000
   34      H       4.3496145000     3.2031664000     0.3283243000
   35      H       4.3131967000     3.1067106000    -1.4583426000
   36      C       2.2581953000     0.0162246000    -3.0319199000
   37      H       1.2080957000    -0.3115254000    -2.9959597000
   38      H       2.6211025000    -0.1652060000    -4.0588793000
   39      C       3.0841744000    -0.7708696000    -2.0166044000
   40      H       4.1541411000    -0.5248073000    -2.1377877000
   41      H       2.8016112000    -0.4336315000    -1.0068813000
   42      C       2.8858786000    -2.2859936000    -2.0755587000
   43      H       1.8089710000    -2.5171153000    -2.0911189000
   44      H       3.3324029000    -2.7054284000    -2.9921434000
   45      C       3.5297247000    -2.9974068000    -0.8662733000
   46      H       3.3483655000    -4.0808714000    -0.9531440000
   47      C      -4.0857522000     2.2769741000    -1.1550432000
   48      H      -4.5516256000     2.7301750000    -2.0464430000
   49      H      -4.9191526000     1.8708234000    -0.5593086000
   50      C      -4.1926448000     1.7247475000     2.0505364000
   51      H      -4.1718867000     1.7650984000     3.1507869000
   52      H      -4.8997037000     2.4741697000     1.6772564000
   53      C      -3.1453090000     1.1166260000    -1.5397943000
   54      H      -2.2756568000     1.1037142000    -0.8689082000
   55      H      -2.7386173000     1.2675702000    -2.5538993000
   56      C      -3.8234153000    -0.2533969000    -1.4396084000
   57      H      -4.4339600000    -0.2892191000    -0.5242869000
   58      H      -4.4936801000    -0.4234114000    -2.2968757000
   59      O      -0.7446526000    -1.5326147000    -2.5853250000
   60      O       5.5065551000    -1.9726615000     0.0424993000
   61      O       0.3621193000    -0.3401125000     0.7154095000
   62      Fe      0.1151072000     1.5587941000     0.8005644000
   63      O       0.6610412000     1.2017351000     2.7643518000
   64      O      -1.8555527000     1.1869420000     1.9714744000
   65      O      -1.1735550000     2.9902400000     0.3290234000
   66      O       1.9727257000     2.4900432000     0.7081142000
   67      O       0.1284944000    -0.3740540000     4.2765206000
   68      O       0.5446830000     1.6296174000    -1.2119871000
   69      H      -4.5256127000     0.7149645000     1.7655592000
   70      H       4.6042505000     1.6373650000    -0.4909686000
 ----------------------------------------------------------------
 Nuclear Repulsion Energy =        6282.72429317 hartrees
 There are      164 alpha and      159 beta electrons
 Using C-PCM dielectric factor f(eps) = (eps-1)/eps = 0.987243
No default van der Waals radius is available for Z = 26
	Found R = 2.4400 A in the $van_der_waals section
 Discretize the solute cavity surface with Lebedev spheres
	Using 110 Lebedev grid points for each H atom
	Using 194 Lebedev grid points for other atoms
	Atomic van der Waals radii (Bondi set) will be scaled by 1.20
 Using smooth SwiG surface discretization
 Remove points where switching function is < 1.0e-08
 Keep 4045 surface tesserae and discard 7015 interior tesserae
 Molecular Surface Area = 510.106 Angst**2

 Requested basis set is non-standard
 There are 339 shells and 739 basis functions
 A cutoff of  1.0D-12 yielded  48879 shell pairs
 There are    213337 function pairs (    236754 Cartesian)
 Smallest overlap matrix eigenvalue = 2.43E-04

 Scale SEOQF with 1.000000e-02/1.000000e-01/1.000000e-01

 Standard Electronic Orientation quadrupole field applied
 Nucleus-field energy     =    -0.0000000132 hartrees
 ================ Generating on-the-fly SAD Guess ================
 Attempting to make child job directory: /data/scratch/C_FeABO_ctL_C_3sextet_SfS_b3lypD3bj_ccpVDZ_pcmH2O_opt_220231222065023//Frg1/
 Attempting to make child job directory: /data/scratch/C_FeABO_ctL_C_3sextet_SfS_b3lypD3bj_ccpVDZ_pcmH2O_opt_220231222065023//Frg2/
 Attempting to make child job directory: /data/scratch/C_FeABO_ctL_C_3sextet_SfS_b3lypD3bj_ccpVDZ_pcmH2O_opt_220231222065023//Frg3/
 Attempting to make child job directory: /data/scratch/C_FeABO_ctL_C_3sextet_SfS_b3lypD3bj_ccpVDZ_pcmH2O_opt_220231222065023//Frg4/
 Attempting to make child job directory: /data/scratch/C_FeABO_ctL_C_3sextet_SfS_b3lypD3bj_ccpVDZ_pcmH2O_opt_220231222065023//Frg5/
 Creating input file /data/scratch/C_FeABO_ctL_C_3sextet_SfS_b3lypD3bj_ccpVDZ_pcmH2O_opt_220231222065023/Frg1.input
 using default PutDataFrgm: nothing
 calling putenv with: QCSCRATCH=/data/scratch/C_FeABO_ctL_C_3sextet_SfS_b3lypD3bj_ccpVDZ_pcmH2O_opt_220231222065023/ 
 Spawning Job For Fragment 0
 Done Job For Fragment 0
 calling putenv with: QCSCRATCH=/data/scratch 
 calling putenv with: QCTHREADS=20 
 Creating input file /data/scratch/C_FeABO_ctL_C_3sextet_SfS_b3lypD3bj_ccpVDZ_pcmH2O_opt_220231222065023/Frg2.input
 using default PutDataFrgm: nothing
 calling putenv with: QCSCRATCH=/data/scratch/C_FeABO_ctL_C_3sextet_SfS_b3lypD3bj_ccpVDZ_pcmH2O_opt_220231222065023/ 
 Spawning Job For Fragment 1
 Done Job For Fragment 1
 calling putenv with: QCSCRATCH=/data/scratch 
 calling putenv with: QCTHREADS=20 
 Creating input file /data/scratch/C_FeABO_ctL_C_3sextet_SfS_b3lypD3bj_ccpVDZ_pcmH2O_opt_220231222065023/Frg3.input
 using default PutDataFrgm: nothing
 calling putenv with: QCSCRATCH=/data/scratch/C_FeABO_ctL_C_3sextet_SfS_b3lypD3bj_ccpVDZ_pcmH2O_opt_220231222065023/ 
 Spawning Job For Fragment 2
 Done Job For Fragment 2
 calling putenv with: QCSCRATCH=/data/scratch 
 calling putenv with: QCTHREADS=20 
 Creating input file /data/scratch/C_FeABO_ctL_C_3sextet_SfS_b3lypD3bj_ccpVDZ_pcmH2O_opt_220231222065023/Frg4.input
 using default PutDataFrgm: nothing
 calling putenv with: QCSCRATCH=/data/scratch/C_FeABO_ctL_C_3sextet_SfS_b3lypD3bj_ccpVDZ_pcmH2O_opt_220231222065023/ 
 Spawning Job For Fragment 3
 Done Job For Fragment 3
 calling putenv with: QCSCRATCH=/data/scratch 
 calling putenv with: QCTHREADS=20 
 Creating input file /data/scratch/C_FeABO_ctL_C_3sextet_SfS_b3lypD3bj_ccpVDZ_pcmH2O_opt_220231222065023/Frg5.input
 using default PutDataFrgm: nothing
 calling putenv with: QCSCRATCH=/data/scratch/C_FeABO_ctL_C_3sextet_SfS_b3lypD3bj_ccpVDZ_pcmH2O_opt_220231222065023/ 
 Spawning Job For Fragment 4
 Done Job For Fragment 4
 calling putenv with: QCSCRATCH=/data/scratch 
 calling putenv with: QCTHREADS=20 
 Time for running child jobs:  CPU 0.02 s  wall 52.03 s
 ============= Method Specific SAD Guess Constructed =============
 Guess from on-the-fly superposition of atomic densities
 Warning: Energy on first SCF cycle will be non-variational

 -----------------------------------------------------------------------
  General SCF calculation program by
  Eric Jon Sundstrom, Paul Horn, Yuezhi Mao, Dmitri Zuev, Alec White,
  David Stuck, Shaama M.S., Shane Yost, Joonho Lee, David Small,
  Daniel Levine, Susi Lehtola, Hugh Burton, Evgeny Epifanovsky,
  Bang C. Huynh
 -----------------------------------------------------------------------
 Exchange:     0.2000 Hartree-Fock + 0.0800 Slater + 0.7200 B88
 Correlation:  0.1900 VWN1RPA + 0.8100 LYP
 Using SG-1 standard quadrature grid
 Dispersion:   Grimme D3
 using 20 threads for integral computing
 -------------------------------------------------------
 OpenMP Integral computing Module                
 Release: version 1.0, May 2013, Q-Chem Inc. Pittsburgh 
 -------------------------------------------------------
 C-PCM solvent model [f = (eps-1)/eps], solve by matrix inversion
 A unrestricted SCF calculation will be
 performed using DIIS
 SCF converges when DIIS error is below 1.0e-08
 ---------------------------------------
  Cycle       Energy         DIIS error
 ---------------------------------------
    1   -3332.2083116335      1.59e-02  
    2   -3316.7861865507      2.20e-03  
    3   -3313.4792156275      4.91e-03  
    4   -3314.4121402608      4.01e-03  
    5   -3317.9352126039      4.35e-04  
    6   -3317.9427915503      4.55e-04  
    7   -3317.9863927464      1.39e-04  
    8   -3317.9889325499      1.00e-04  
    9   -3317.9911256288      3.70e-05  
   10   -3317.9914095840      1.33e-05  
   11   -3317.9914558316      5.77e-06  
   12   -3317.9914693151      3.37e-06  
   13   -3317.9914744395      1.98e-06  
   14   -3317.9914755402      8.87e-07  
   15   -3317.9914759085      4.95e-07  
   16   -3317.9914760495      2.30e-07  
   17   -3317.9914760731      1.22e-07  
   18   -3317.9914760782      5.80e-08  
   19   -3317.9914760793      2.89e-08  
   20   -3317.9914760800      1.15e-08  
   21   -3317.9914760797      5.63e-09  Convergence criterion met
 ---------------------------------------
 SCF time:   CPU 31263.72s  wall 2108.00s 
<S^2> =          8.759886692

************** Final PCM Free Energy Summary **************
 G_electrostatic  =      -0.54142697 hartree =    -339.75055361 kcal/mol
 G_cavitation     =       0.00000000 hartree =       0.00000000 kcal/mol
 G_dispersion     =       0.00000000 hartree =       0.00000000 kcal/mol
 G_repulsion      =       0.00000000 hartree =       0.00000000 kcal/mol
 --------------------------------------------------
 Non-electrostatic Free Energy =       0.00000000 hartree =       0.00000000 kcal/mol
 Total                         =      -0.54142697 hartree =    -339.75055361 kcal/mol
 --------------------------------------------------
 SCF Energy (H0 + V/2)                       =   -3317.99147608 
 Solute Internal Energy (H0)                 =   -3317.45004911 
 Total Free Energy (H0 + V/2 + non-elec)     =   -3317.99147608 hartree
                                             = -2082071.07593730 kcal/mol
***********************************************************

 SCF   energy in the final basis set =    -3317.9914760797
 Total energy in the final basis set =    -3317.9914760797
 
 --------------------------------------------------------------
 
                    Orbital Energies (a.u.)
 --------------------------------------------------------------
 
 Alpha MOs
 -- Occupied --
******** -30.1263 -25.9801 -25.9794 -25.9755 -19.1269 -19.1253 -19.1173
-19.1168 -19.0971 -19.0880 -19.0863 -19.0808 -19.0801 -19.0586 -19.0584
-19.0518 -19.0518 -14.4053 -14.3952 -14.3252 -14.3100 -10.2800 -10.2775
-10.2664 -10.2629 -10.2587 -10.2447 -10.2442 -10.2212 -10.2171 -10.2161
-10.1941 -10.1923 -10.1900 -10.1858 -10.1777 -10.1734 -10.1684 -10.1655
-10.1647 -10.1640 -10.1626 -10.1625  -3.6070  -2.3838  -2.3826  -2.3756
 -1.0779  -1.0724  -1.0296  -1.0116  -1.0045  -1.0039  -1.0019  -0.9970
 -0.9951  -0.9595  -0.9375  -0.9133  -0.9101  -0.8952  -0.8851  -0.8483
 -0.8443  -0.7860  -0.7811  -0.7610  -0.7478  -0.7399  -0.7212  -0.7175
 -0.7025  -0.6823  -0.6701  -0.6283  -0.6193  -0.5998  -0.5813  -0.5799
 -0.5448  -0.5408  -0.5359  -0.5303  -0.5156  -0.5121  -0.5067  -0.5024
 -0.4959  -0.4897  -0.4865  -0.4757  -0.4714  -0.4671  -0.4598  -0.4562
 -0.4526  -0.4510  -0.4389  -0.4352  -0.4329  -0.4303  -0.4269  -0.4259
 -0.4226  -0.4185  -0.4168  -0.4092  -0.4077  -0.4069  -0.4040  -0.4017
 -0.3982  -0.3958  -0.3918  -0.3902  -0.3889  -0.3871  -0.3828  -0.3809
 -0.3780  -0.3738  -0.3729  -0.3681  -0.3673  -0.3658  -0.3599  -0.3539
 -0.3523  -0.3496  -0.3463  -0.3433  -0.3411  -0.3359  -0.3308  -0.3243
 -0.3209  -0.3176  -0.3150  -0.3128  -0.3095  -0.3052  -0.3040  -0.2962
 -0.2874  -0.2760  -0.2707  -0.2533  -0.2431  -0.2420  -0.2397  -0.2390
 -0.2312  -0.2291  -0.2249  -0.2231  -0.2187  -0.2146  -0.2130  -0.2069
 -0.2045  -0.2036  -0.2030  -0.1950
 -- Virtual --
  0.0159   0.0205   0.0321   0.0363   0.0456   0.0587   0.0662   0.0680
  0.0764   0.0771   0.0809   0.0867   0.0888   0.0956   0.1044   0.1081
  0.1118   0.1145   0.1177   0.1205   0.1239   0.1290   0.1320   0.1404
  0.1460   0.1476   0.1494   0.1553   0.1580   0.1626   0.1635   0.1676
  0.1697   0.1771   0.1788   0.1807   0.1829   0.1873   0.1907   0.1944
  0.2002   0.2046   0.2105   0.2179   0.2187   0.2224   0.2260   0.2284
  0.2308   0.2380   0.2441   0.2490   0.2552   0.2583   0.2607   0.2644
  0.2729   0.2766   0.2799   0.2818   0.2906   0.2981   0.2989   0.3016
  0.3195   0.3249   0.3275   0.3292   0.3330   0.3466   0.3521   0.3602
  0.3705   0.3748   0.3816   0.3852   0.3896   0.4014   0.4060   0.4087
  0.4139   0.4224   0.4269   0.4298   0.4411   0.4450   0.4472   0.4529
  0.4607   0.4651   0.4669   0.4694   0.4803   0.4827   0.4856   0.4882
  0.4976   0.4990   0.5080   0.5137   0.5164   0.5227   0.5290   0.5328
  0.5335   0.5348   0.5384   0.5461   0.5501   0.5598   0.5628   0.5637
  0.5647   0.5696   0.5748   0.5785   0.5794   0.5855   0.5883   0.5913
  0.6014   0.6044   0.6073   0.6083   0.6116   0.6154   0.6203   0.6285
  0.6293   0.6306   0.6339   0.6355   0.6417   0.6442   0.6454   0.6493
  0.6544   0.6587   0.6608   0.6647   0.6660   0.6698   0.6729   0.6770
  0.6776   0.6797   0.6839   0.6867   0.6901   0.6913   0.6933   0.6955
  0.6977   0.7009   0.7025   0.7089   0.7122   0.7160   0.7197   0.7219
  0.7257   0.7301   0.7332   0.7360   0.7398   0.7443   0.7500   0.7530
  0.7547   0.7689   0.7713   0.7778   0.7848   0.7885   0.7921   0.7998
  0.8076   0.8181   0.8190   0.8233   0.8298   0.8372   0.8405   0.8507
  0.8526   0.8557   0.8695   0.8723   0.8776   0.8853   0.8888   0.8971
  0.9059   0.9166   0.9267   0.9300   0.9410   0.9428   0.9587   0.9592
  0.9795   0.9934   0.9986   1.0046   1.0081   1.0246   1.0255   1.0329
  1.0415   1.0427   1.0482   1.0534   1.0583   1.0639   1.0720   1.0786
  1.0794   1.0905   1.0941   1.1031   1.1117   1.1121   1.1167   1.1220
  1.1254   1.1296   1.1370   1.1444   1.1510   1.1535   1.1558   1.1637
  1.1648   1.1711   1.1720   1.1795   1.1831   1.1898   1.1995   1.2012
  1.2088   1.2140   1.2164   1.2227   1.2236   1.2319   1.2389   1.2473
  1.2525   1.2569   1.2615   1.2677   1.2733   1.2768   1.2821   1.2869
  1.2938   1.2987   1.3036   1.3057   1.3160   1.3219   1.3267   1.3334
  1.3408   1.3452   1.3497   1.3519   1.3638   1.3694   1.3766   1.3793
  1.3810   1.3914   1.4011   1.4034   1.4122   1.4155   1.4214   1.4276
  1.4296   1.4306   1.4363   1.4432   1.4502   1.4546   1.4619   1.4661
  1.4727   1.4782   1.4953   1.4990   1.5026   1.5159   1.5208   1.5247
  1.5290   1.5345   1.5419   1.5479   1.5563   1.5574   1.5700   1.5706
  1.5779   1.5837   1.5921   1.5958   1.6015   1.6079   1.6094   1.6157
  1.6246   1.6299   1.6315   1.6349   1.6364   1.6407   1.6451   1.6516
  1.6564   1.6574   1.6608   1.6645   1.6711   1.6722   1.6764   1.6789
  1.6813   1.6901   1.6933   1.6986   1.7058   1.7082   1.7128   1.7172
  1.7245   1.7255   1.7320   1.7360   1.7383   1.7414   1.7486   1.7505
  1.7513   1.7566   1.7601   1.7656   1.7681   1.7716   1.7777   1.7800
  1.7863   1.7892   1.7909   1.7955   1.8003   1.8042   1.8081   1.8139
  1.8164   1.8197   1.8269   1.8306   1.8344   1.8358   1.8394   1.8428
  1.8506   1.8559   1.8572   1.8598   1.8628   1.8715   1.8735   1.8846
  1.8873   1.8916   1.8930   1.8999   1.9051   1.9082   1.9103   1.9174
  1.9219   1.9343   1.9466   1.9563   1.9581   1.9656   1.9721   1.9802
  1.9808   1.9869   1.9975   2.0039   2.0080   2.0135   2.0253   2.0308
  2.0376   2.0478   2.0501   2.0600   2.0636   2.0649   2.0745   2.0817
  2.0860   2.0926   2.0969   2.1037   2.1073   2.1192   2.1250   2.1322
  2.1374   2.1437   2.1506   2.1572   2.1607   2.1711   2.1745   2.1831
  2.1852   2.1879   2.1991   2.2048   2.2100   2.2137   2.2241   2.2317
  2.2371   2.2463   2.2533   2.2600   2.2668   2.2682   2.2746   2.2804
  2.2838   2.2929   2.2982   2.3102   2.3162   2.3188   2.3292   2.3305
  2.3418   2.3444   2.3477   2.3582   2.3644   2.3703   2.3739   2.3800
  2.3915   2.4040   2.4119   2.4132   2.4248   2.4368   2.4398   2.4466
  2.4509   2.4721   2.4757   2.4804   2.4844   2.4874   2.4954   2.5032
  2.5079   2.5232   2.5281   2.5289   2.5406   2.5439   2.5506   2.5634
  2.5691   2.5761   2.5826   2.5904   2.6016   2.6043   2.6144   2.6232
  2.6284   2.6552   2.6620   2.6720   2.6786   2.6823   2.6875   2.6957
  2.6997   2.7081   2.7154   2.7177   2.7259   2.7281   2.7319   2.7357
  2.7391   2.7431   2.7464   2.7515   2.7578   2.7620   2.7683   2.7687
  2.7816   2.7845   2.7868   2.7903   2.8008   2.8167   2.8311   2.8378
  2.8439   2.8568   2.8854   2.9003   2.9071   2.9118   2.9341   2.9450
  2.9570   2.9826   2.9920   3.0126   3.0172   3.0316   3.0373   3.0607
  3.0731   3.0899   3.1062   3.1121   3.1249   3.1327   3.1371   3.1507
  3.1853   3.2149   3.2167   3.2284   3.2461   3.2556   3.2729   3.2981
  3.3591   3.4092   3.4112   3.4150   3.4306   3.4344   3.4386   3.4418
  3.4511   3.4708   3.4898   3.4940   3.5079   3.5188   3.5299   3.5461
  3.5574   3.5771   3.5990   3.6091   3.6136   3.7229   3.7622
 
 Beta MOs
 -- Occupied --
******** -30.0346 -25.9033 -25.9022 -25.9002 -19.1236 -19.1202 -19.1144
-19.1125 -19.0939 -19.0880 -19.0803 -19.0800 -19.0797 -19.0586 -19.0584
-19.0518 -19.0518 -14.4049 -14.3948 -14.3252 -14.3100 -10.2802 -10.2776
-10.2664 -10.2628 -10.2587 -10.2447 -10.2442 -10.2212 -10.2170 -10.2161
-10.1941 -10.1923 -10.1899 -10.1857 -10.1777 -10.1732 -10.1684 -10.1655
-10.1647 -10.1638 -10.1626 -10.1625  -3.3933  -2.1584  -2.1555  -2.1528
 -1.0729  -1.0676  -1.0260  -1.0115  -1.0032  -0.9978  -0.9970  -0.9969
 -0.9949  -0.9494  -0.9307  -0.9133  -0.9100  -0.8952  -0.8848  -0.8436
 -0.8394  -0.7856  -0.7806  -0.7591  -0.7472  -0.7390  -0.7201  -0.7163
 -0.7019  -0.6818  -0.6697  -0.6275  -0.6188  -0.5983  -0.5808  -0.5794
 -0.5438  -0.5367  -0.5354  -0.5240  -0.5111  -0.5067  -0.5047  -0.4967
 -0.4903  -0.4861  -0.4808  -0.4699  -0.4680  -0.4625  -0.4567  -0.4542
 -0.4507  -0.4467  -0.4352  -0.4333  -0.4288  -0.4268  -0.4240  -0.4214
 -0.4194  -0.4111  -0.4076  -0.4046  -0.4007  -0.3985  -0.3980  -0.3944
 -0.3918  -0.3882  -0.3874  -0.3834  -0.3809  -0.3760  -0.3742  -0.3694
 -0.3664  -0.3600  -0.3553  -0.3529  -0.3498  -0.3467  -0.3441  -0.3422
 -0.3374  -0.3348  -0.3233  -0.3204  -0.3169  -0.3158  -0.3107  -0.3094
 -0.3050  -0.3040  -0.2978  -0.2912  -0.2821  -0.2777  -0.2733  -0.2597
 -0.2510  -0.2401  -0.2392  -0.2363  -0.2301  -0.2250  -0.2231  -0.2192
 -0.2157  -0.2137  -0.2123  -0.2052  -0.2037  -0.2032  -0.1942
 -- Virtual --
 -0.0707  -0.0643  -0.0610  -0.0404  -0.0215   0.0199   0.0244   0.0330
  0.0385   0.0459   0.0595   0.0667   0.0693   0.0772   0.0776   0.0814
  0.0874   0.0899   0.0970   0.1047   0.1103   0.1133   0.1151   0.1181
  0.1210   0.1244   0.1295   0.1330   0.1417   0.1467   0.1495   0.1506
  0.1558   0.1587   0.1635   0.1645   0.1691   0.1717   0.1780   0.1798
  0.1825   0.1835   0.1896   0.1916   0.1957   0.2011   0.2057   0.2169
  0.2194   0.2209   0.2238   0.2292   0.2308   0.2326   0.2388   0.2483
  0.2507   0.2560   0.2602   0.2621   0.2666   0.2737   0.2775   0.2820
  0.2833   0.2918   0.2988   0.3002   0.3045   0.3247   0.3269   0.3296
  0.3355   0.3429   0.3504   0.3556   0.3648   0.3734   0.3782   0.3834
  0.3868   0.3942   0.4023   0.4101   0.4117   0.4166   0.4243   0.4310
  0.4325   0.4422   0.4459   0.4481   0.4561   0.4617   0.4679   0.4691
  0.4705   0.4814   0.4843   0.4885   0.4899   0.4989   0.4999   0.5093
  0.5152   0.5186   0.5237   0.5313   0.5336   0.5351   0.5360   0.5392
  0.5467   0.5520   0.5607   0.5637   0.5643   0.5651   0.5707   0.5755
  0.5790   0.5797   0.5864   0.5915   0.5923   0.6023   0.6051   0.6085
  0.6088   0.6120   0.6167   0.6210   0.6291   0.6299   0.6311   0.6345
  0.6362   0.6423   0.6445   0.6461   0.6500   0.6547   0.6597   0.6615
  0.6652   0.6665   0.6702   0.6735   0.6773   0.6786   0.6807   0.6845
  0.6878   0.6914   0.6920   0.6942   0.6960   0.6981   0.7027   0.7033
  0.7102   0.7133   0.7169   0.7207   0.7241   0.7273   0.7312   0.7339
  0.7383   0.7404   0.7457   0.7506   0.7544   0.7565   0.7711   0.7731
  0.7793   0.7863   0.7933   0.7955   0.8059   0.8092   0.8195   0.8219
  0.8263   0.8321   0.8386   0.8420   0.8519   0.8577   0.8591   0.8737
  0.8759   0.8790   0.8875   0.8920   0.9022   0.9104   0.9195   0.9307
  0.9321   0.9434   0.9461   0.9609   0.9638   0.9832   0.9984   1.0029
  1.0063   1.0094   1.0281   1.0293   1.0342   1.0441   1.0463   1.0492
  1.0553   1.0624   1.0663   1.0739   1.0799   1.0816   1.0917   1.0956
  1.1049   1.1127   1.1155   1.1176   1.1231   1.1283   1.1312   1.1390
  1.1453   1.1531   1.1563   1.1591   1.1650   1.1666   1.1728   1.1750
  1.1812   1.1869   1.1910   1.2015   1.2042   1.2098   1.2154   1.2205
  1.2257   1.2269   1.2345   1.2424   1.2485   1.2552   1.2585   1.2643
  1.2692   1.2760   1.2792   1.2852   1.2913   1.2979   1.3008   1.3083
  1.3100   1.3189   1.3251   1.3300   1.3385   1.3423   1.3480   1.3536
  1.3583   1.3660   1.3753   1.3791   1.3838   1.3864   1.3962   1.4040
  1.4148   1.4173   1.4239   1.4254   1.4310   1.4331   1.4335   1.4413
  1.4481   1.4563   1.4580   1.4690   1.4752   1.4777   1.4891   1.4990
  1.5027   1.5071   1.5180   1.5253   1.5298   1.5346   1.5412   1.5450
  1.5569   1.5638   1.5672   1.5727   1.5772   1.5844   1.5894   1.5939
  1.6000   1.6046   1.6088   1.6118   1.6181   1.6264   1.6332   1.6349
  1.6367   1.6435   1.6500   1.6527   1.6553   1.6587   1.6598   1.6644
  1.6707   1.6740   1.6776   1.6781   1.6819   1.6870   1.6915   1.6953
  1.6999   1.7075   1.7123   1.7167   1.7197   1.7257   1.7267   1.7335
  1.7385   1.7419   1.7448   1.7514   1.7543   1.7571   1.7580   1.7638
  1.7670   1.7690   1.7750   1.7791   1.7811   1.7895   1.7917   1.7951
  1.7967   1.8029   1.8071   1.8102   1.8156   1.8181   1.8227   1.8282
  1.8333   1.8373   1.8383   1.8409   1.8468   1.8524   1.8579   1.8605
  1.8620   1.8655   1.8727   1.8755   1.8872   1.8902   1.8935   1.8971
  1.9022   1.9088   1.9103   1.9148   1.9194   1.9249   1.9387   1.9487
  1.9581   1.9603   1.9694   1.9744   1.9818   1.9849   1.9931   2.0012
  2.0083   2.0114   2.0172   2.0289   2.0373   2.0395   2.0503   2.0517
  2.0635   2.0677   2.0716   2.0770   2.0829   2.0888   2.0966   2.1020
  2.1078   2.1094   2.1206   2.1274   2.1336   2.1401   2.1451   2.1521
  2.1593   2.1618   2.1724   2.1764   2.1854   2.1870   2.1894   2.2010
  2.2082   2.2142   2.2157   2.2274   2.2341   2.2400   2.2488   2.2561
  2.2613   2.2679   2.2722   2.2761   2.2829   2.2866   2.2948   2.3042
  2.3112   2.3178   2.3247   2.3304   2.3322   2.3427   2.3465   2.3517
  2.3588   2.3660   2.3740   2.3764   2.3819   2.3928   2.4064   2.4131
  2.4162   2.4261   2.4406   2.4437   2.4492   2.4522   2.4735   2.4781
  2.4816   2.4873   2.4886   2.4980   2.5052   2.5096   2.5251   2.5289
  2.5315   2.5429   2.5460   2.5527   2.5658   2.5716   2.5796   2.5859
  2.5920   2.6038   2.6061   2.6186   2.6273   2.6306   2.6594   2.6719
  2.6778   2.6819   2.6840   2.6930   2.7022   2.7060   2.7125   2.7204
  2.7212   2.7291   2.7338   2.7345   2.7377   2.7440   2.7467   2.7535
  2.7606   2.7674   2.7693   2.7723   2.7769   2.7850   2.7882   2.7903
  2.7980   2.8042   2.8248   2.8358   2.8465   2.8591   2.8819   2.9017
  2.9091   2.9116   2.9368   2.9441   2.9538   2.9695   2.9905   3.0053
  3.0128   3.0183   3.0498   3.0574   3.0909   3.0954   3.1089   3.1226
  3.1269   3.1390   3.1463   3.1633   3.2095   3.2149   3.2278   3.2336
  3.2458   3.2545   3.2572   3.3052   3.3751   3.4112   3.4164   3.4184
  3.4309   3.4396   3.4425   3.4475   3.4567   3.4679   3.4850   3.4936
  3.5191   3.5289   3.5304   3.5453   3.5533   3.5769   3.5881   3.6077
  3.6123   3.6953   3.7296   3.7712
 --------------------------------------------------------------
 
          Ground-State Mulliken Net Atomic Charges

     Atom                 Charge (a.u.)    Spin (a.u.)
  --------------------------------------------------------
      1 C                     0.111356      -0.000958
      2 C                    -0.004538       0.000038
      3 H                    -0.019653      -0.000014
      4 N                    -0.090199       0.001132
      5 H                     0.105478       0.000741
      6 C                     0.095182       0.000055
      7 O                    -0.447889       0.000040
      8 C                     0.106118      -0.000233
      9 O                    -0.395525       0.000512
     10 N                    -0.049802       0.014108
     11 C                     0.134467       0.001300
     12 H                     0.037299       0.000125
     13 H                     0.038861       0.000521
     14 C                     0.141258       0.007074
     15 H                     0.012941      -0.000126
     16 H                    -0.025100       0.000302
     17 C                    -0.033349       0.002452
     18 C                     0.220826       0.004638
     19 C                     0.099000       0.006945
     20 H                     0.015642       0.001772
     21 H                     0.002734      -0.000438
     22 C                     0.142333       0.000132
     23 O                    -0.378833       0.000348
     24 N                    -0.083391      -0.000029
     25 H                     0.079489      -0.000052
     26 C                     0.094707      -0.000004
     27 O                    -0.451348       0.000002
     28 C                     0.129055      -0.004011
     29 N                    -0.011357       0.015027
     30 C                     0.130513       0.001461
     31 H                     0.035336       0.001767
     32 H                     0.025133       0.000918
     33 C                     0.019025       0.004201
     34 H                     0.048184       0.000258
     35 H                     0.065783       0.000143
     36 C                    -0.014486       0.001048
     37 H                     0.013548       0.000207
     38 H                     0.004347      -0.000160
     39 C                    -0.067077      -0.000005
     40 H                     0.003799      -0.000007
     41 H                     0.027100      -0.000144
     42 C                     0.054166      -0.000003
     43 H                    -0.015392      -0.000028
     44 H                    -0.013867       0.000019
     45 C                     0.002199      -0.000001
     46 H                    -0.025814       0.000001
     47 C                    -0.021381       0.000891
     48 H                     0.012828       0.000216
     49 H                     0.008949       0.000035
     50 C                     0.024459       0.004003
     51 H                     0.055709       0.000090
     52 H                     0.048006       0.000885
     53 C                    -0.067612      -0.000127
     54 H                     0.099059       0.001778
     55 H                     0.001429       0.000038
     56 C                     0.050818       0.000052
     57 H                    -0.008208       0.000005
     58 H                    -0.017056       0.000110
     59 O                    -0.406109       0.000101
     60 O                    -0.447992       0.000002
     61 O                    -0.517242       0.215539
     62 Fe                    0.542066       4.137813
     63 O                    -0.392058       0.093281
     64 O                    -0.324808       0.069855
     65 O                    -0.442195       0.156485
     66 O                    -0.380539       0.093510
     67 O                    -0.386784       0.017379
     68 O                    -0.428383       0.147321
     69 H                     0.062577      -0.000249
     70 H                     0.066204      -0.000091
  --------------------------------------------------------
  Sum of atomic charges =    -3.000000
  Sum of spin   charges =     5.000000

 -----------------------------------------------------------------
                    Cartesian Multipole Moments
 -----------------------------------------------------------------
    Charge (ESU x 10^10)
               -14.4096
    Dipole Moment (Debye)
         X     -12.2481      Y      20.8926      Z       1.7364
       Tot      24.2802
    Quadrupole Moments (Debye-Ang)
        XX    -386.4007     XY      35.9456     YY    -317.7254
        XZ      -5.1113     YZ     -42.4692     ZZ    -350.6233
    Octopole Moments (Debye-Ang^2)
       XXX    -789.9978    XXY     535.9353    XYY    -203.4261
       YYY     228.5843    XXZ     173.6356    XYZ     -90.6126
       YYZ      68.2642    XZZ      37.3309    YZZ     132.1885
       ZZZ      29.4499
    Hexadecapole Moments (Debye-Ang^3)
      XXXX  -16296.6581   XXXY    3136.3256   XXYY   -3905.0106
      XYYY    1776.5880   YYYY   -6920.2475   XXXZ    1146.5732
      XXYZ    -649.9802   XYYZ     382.2629   YYYZ    -537.5379
      XXZZ   -3320.1936   XYZZ     386.9691   YYZZ   -2153.3794
      XZZZ     147.8307   YZZZ    -641.4840   ZZZZ   -6792.8650
 -----------------------------------------------------------------
 Calculating analytic gradient of the SCF energy
 Gradient of SCF Energy
            1           2           3           4           5           6
    1   0.0370812  -0.0504903   0.0416356   0.0746933  -0.0939019   0.0827170
    2  -0.0257969  -0.0394520   0.0617569   0.0204011  -0.0383047  -0.0258210
    3   0.0195594   0.0085590  -0.0045185   0.0469784   0.0153698  -0.1447593
            7           8           9          10          11          12
    1   0.0915817  -0.1105035   0.1687492  -0.0518680  -0.0062618  -0.0313082
    2   0.0199132  -0.0335400   0.0360926  -0.0238274   0.0250140  -0.0338678
    3   0.1768826   0.0109944  -0.0602117   0.0200015  -0.0081572   0.0359057
           13          14          15          16          17          18
    1   0.0345029  -0.0343847  -0.0149008   0.0278764   0.0080948   0.0182432
    2  -0.0270911  -0.0277571   0.0691268  -0.0051595  -0.0336568   0.0160398
    3  -0.0202649   0.0103433   0.0076555  -0.0647109   0.0076971   0.1686589
           19          20          21          22          23          24
    1   0.0323384   0.0132082  -0.0582487  -0.0527288   0.1164314  -0.0160316
    2   0.0024104   0.0469791  -0.0418497  -0.1185296   0.1397275   0.0588309
    3   0.0255455  -0.0526888  -0.0203528  -0.0711659   0.0747858   0.0608021
           25          26          27          28          29          30
    1  -0.0527142   0.1602068  -0.1133313  -0.0154847   0.0751401  -0.0005187
    2  -0.0583040   0.0103990   0.0827197   0.0139417   0.0226314   0.0078194
    3  -0.0449604  -0.0081473   0.1292943   0.0073138   0.0165891  -0.0180262
           31          32          33          34          35          36
    1  -0.0542502   0.0357983  -0.0082846  -0.0167446  -0.0125820  -0.0161549
    2  -0.0169336  -0.0300216  -0.0155194  -0.0333621  -0.0243518  -0.0005490
    3   0.0084372   0.0422886  -0.0010453  -0.0459381   0.0462653  -0.0131465
           37          38          39          40          41          42
    1   0.0597250  -0.0214598   0.0001883  -0.0610474   0.0223125  -0.0169941
    2   0.0176847   0.0097769   0.0067561  -0.0140298  -0.0231063  -0.0101616
    3  -0.0034059   0.0562676   0.0161904   0.0091043  -0.0628282  -0.0215261
           43          44          45          46          47          48
    1   0.0657096  -0.0243645  -0.0218505   0.0121034  -0.0145169   0.0185623
    2   0.0161709   0.0240140  -0.0563599   0.0767984   0.0094302  -0.0196267
    3   0.0040131   0.0574724  -0.0212070   0.0093917  -0.0007401   0.0411441
           49          50          51          52          53          54
    1   0.0372582   0.0108985  -0.0016331   0.0328976   0.0364092  -0.0558495
    2   0.0175781  -0.0056672  -0.0025077  -0.0336156  -0.0059528   0.0024073
    3  -0.0269452  -0.0051727  -0.0589776   0.0183952  -0.0069845  -0.0414326
           55          56          57          58          59          60
    1  -0.0232970  -0.0242074   0.0339996   0.0389627  -0.1604579  -0.0803286
    2  -0.0106069  -0.0060270  -0.0006246   0.0057818   0.0177496  -0.0919061
    3   0.0603883  -0.0043983  -0.0473569   0.0439684   0.0071567  -0.1164357
           61          62          63          64          65          66
    1  -0.0059378   0.0002711  -0.0378336  -0.0807586   0.0213969   0.0263212
    2   0.0110027   0.0249498  -0.0956576   0.0625155  -0.0294891  -0.0304558
    3   0.0239124  -0.0050073  -0.0023092  -0.0471014   0.0072115  -0.0810924
           67          68          69          70
    1   0.0172776  -0.0002040   0.0197087  -0.0308670
    2   0.0521835  -0.0083416   0.0543494   0.0548790
    3  -0.2011567   0.0219285   0.0186292  -0.0029293
 Max gradient component =       2.012E-01
 RMS gradient           =       5.248E-02
 Computing fast CPCM-SWIG gradient
 Updating gradient with PCM contributions...
 -- total gradient after adding PCM contribution --
---------------------------------------------------
  Atom         X              Y              Z     
---------------------------------------------------
   1      -0.000049       0.000057      -0.000046
   2       0.000064      -0.000203       0.000164
   3      -0.000055       0.000024      -0.000003
   4      -0.000045       0.000181       0.000020
   5       0.000009      -0.000052      -0.000019
   6       0.000122       0.000026      -0.000156
   7       0.000005       0.000011       0.000007
   8      -0.000078      -0.000074      -0.000037
   9       0.000029       0.000024      -0.000012
  10      -0.000124      -0.000152      -0.000002
  11      -0.000001       0.000179       0.000031
  12       0.000033      -0.000023       0.000009
  13      -0.000027      -0.000082       0.000051
  14       0.000123       0.000007       0.000025
  15      -0.000000       0.000012      -0.000022
  16      -0.000024       0.000001      -0.000001
  17      -0.000208      -0.000056      -0.000026
  18       0.000100       0.000045       0.000061
  19       0.000035       0.000052       0.000042
  20       0.000021      -0.000010       0.000048
  21      -0.000016       0.000017      -0.000075
  22      -0.000072       0.000015      -0.000017
  23      -0.000003       0.000030      -0.000017
  24       0.000090      -0.000063       0.000015
  25       0.000007       0.000025       0.000006
  26      -0.000014      -0.000017      -0.000026
  27       0.000005      -0.000009       0.000019
  28       0.000048      -0.000104       0.000041
  29      -0.000072       0.000096      -0.000165
  30      -0.000083      -0.000112       0.000101
  31       0.000051      -0.000032       0.000036
  32      -0.000001       0.000007      -0.000023
  33       0.000025       0.000076       0.000017
  34      -0.000006      -0.000007       0.000008
  35      -0.000016      -0.000001      -0.000016
  36      -0.000043       0.000105      -0.000058
  37       0.000001      -0.000028       0.000016
  38       0.000026       0.000008       0.000017
  39       0.000061       0.000024       0.000020
  40       0.000004      -0.000004      -0.000015
  41      -0.000005       0.000041       0.000016
  42      -0.000099      -0.000135       0.000013
  43      -0.000003      -0.000001      -0.000001
  44       0.000081       0.000073       0.000008
  45      -0.000008       0.000022       0.000025
  46       0.000008      -0.000017       0.000029
  47       0.000068      -0.000087       0.000033
  48      -0.000003       0.000006      -0.000045
  49      -0.000062       0.000026      -0.000041
  50      -0.000010       0.000082      -0.000081
  51      -0.000007      -0.000006       0.000017
  52      -0.000008      -0.000023      -0.000027
  53       0.000033      -0.000031       0.000053
  54       0.000018       0.000016      -0.000048
  55      -0.000056      -0.000020      -0.000023
  56      -0.000006       0.000061       0.000075
  57      -0.000031      -0.000021      -0.000042
  58      -0.000022       0.000021      -0.000014
  59      -0.000017      -0.000025       0.000011
  60      -0.000003       0.000014       0.000015
  61      -0.000002       0.000033       0.000054
  62       0.000378      -0.000055       0.000083
  63      -0.000134       0.000006      -0.000012
  64       0.000038      -0.000026       0.000004
  65       0.000106       0.000056      -0.000023
  66      -0.000267       0.000004      -0.000001
  67      -0.000004       0.000004      -0.000000
  68       0.000102       0.000022      -0.000136
  69       0.000004      -0.000044       0.000053
  70      -0.000011       0.000011      -0.000012
---------------------------------------------------
 Number of fixed atoms: 0
 Gradient time:  CPU 23928.14 s  wall 1252.31 s

 *****************************************************
             Starting BFGS Algorithm
 *****************************************************
            LIBOPT3 RUN PARAMETERS

  Geometry Optimization Coordinates :
	Delocalized Natural Internal Coordinates

  Step Length Selection Method :
	Eigenvector Following Algorithm

  Convergence Criteria :
	Max Gradient Component    	3.00000000e-04
	Max Displacement Component	1.20000000e-03
	Absolute Energy Difference	1.00000000e-06

  Initial Hessian :
	Approximate Hessian - Simple Internal Coordinate Scaled

  Type of Verification :
	Verify with final updated Hessian
 *****************************************************

	OPTIMIZATION CYCLE:	1

 Scaling Magnitude of Eigenvalues
 	Minimum: -25.00000000	 Maximum: 25.00000000
 204 Hessian Eigenvalues to form next step
   0.10000000   0.10000000   0.10000000   0.10000000   0.10000000
   0.10000000   0.10000000   0.10000000   0.10000000   0.10000000
   0.10000057   0.10000145   0.10000179   0.10000542   0.10000743
   0.10000752   0.10001804   0.10001863   0.10003127   0.10003585
   0.10007645   0.10013756   0.10015595   0.10016122   0.10038379
   0.10077362   0.10137560   0.10270456   0.10474967   0.10507722
   0.10562204   0.10725992   0.10946649   0.11059582   0.11142183
   0.11214695   0.11442002   0.11611701   0.11725028   0.11841195
   0.11920367   0.11951262   0.11965705   0.12002775   0.12078846
   0.12268993   0.12292739   0.12415490   0.12476017   0.12530166
   0.12623961   0.12656568   0.12691535   0.12728377   0.12753308
   0.12769832   0.12868770   0.13027457   0.13150530   0.13279496
   0.13397826   0.13426027   0.13451044   0.13651150   0.13716279
   0.13967644   0.14090801   0.14097653   0.14178141   0.14487397
   0.14610466   0.14622863   0.14824293   0.14993270   0.15000206
   0.15131785   0.15190733   0.15290684   0.15300808   0.15352095
   0.15559477   0.15662420   0.15725011   0.15816212   0.15823807
   0.16058765   0.16562804   0.16704130   0.17423266   0.17491493
   0.17585798   0.17613638   0.17678562   0.17687368   0.17794616
   0.17810099   0.17929714   0.17991882   0.18226333   0.18455545
   0.18525173   0.18714167   0.18912476   0.19098368   0.19531570
   0.19651095   0.19679068   0.19728423   0.19881208   0.19909907
   0.19919064   0.19976459   0.19987381   0.19991077   0.19991562
   0.19995327   0.19995385   0.19999523   0.20000000   0.20000000
   0.20000000   0.20000000   0.20000000   0.20000000   0.20000000
   0.20000000   0.20000000   0.20000000   0.20000000   0.20000000
   0.37226284   0.40272713   0.42441043   0.43183020   0.43331209
   0.43654526   0.46363948   0.46628436   0.47569407   0.48001996
   0.48447876   0.48593083   0.49376067   0.49709082   0.49885451
   0.50000000   0.50000000   0.50000000   0.50000000   0.50000000
   0.50000000   0.50000000   0.50000000   0.50000000   0.50000000
   0.50000000   0.50000000   0.50000000   0.50000000   0.50000000
   0.50000000   0.50000000   0.50000000   0.50000000   0.50000000
   0.50000000   0.50000000   0.50000000   0.50000000   0.50000000
   0.50000000   0.50000000   0.50000000   0.50000000   0.50000000
   0.50000000   0.50000000   0.50000000   0.50000000   0.50000000
   0.50000000   0.50000000   0.50000000   0.50000000   0.50000000
   0.50000000   0.50000000   0.50000000   0.50000000   0.50000000
   0.50000000   0.50000000   0.50000000   0.50000000   0.50000000
   0.50000000   0.50000000   0.50000000   0.50000000   0.50000000
   0.50000000   0.50000000   0.50000000   0.50000000

 Minimum Search taking a RFO step
 Searching for Lambda that minimizes along all modes
	Value of Lambda   -0.00000170
	Norm  of Stepsize  0.00340395
	RMS   of Stepsize  0.00023832

	Performing Iterative Coordinate Back-Transformation

	  Starting from Previous Position

	  iter:	0	rms: 7.4544839722e-04	maxdev: 3.3181583694e-03
	  iter:	1	rms: 1.6624174468e-07	maxdev: 6.6325304425e-07	 Success!

	Finished Iterative Coordinate Back-Transformation
 Adding empirical dispersion correction 
 ----------------------------------------------------------------
 Doing -D3(BJ) with
 s6  =   1.00000e+00
 s8  =   1.98890e+00
 a1  =   3.98100e-01
 a2  =   4.42110e+00
 -D3 energy without 3body term =     -1.7904221571e-01 hartrees
 ----------------------------------------------------------------
             Standard Nuclear Orientation (Angstroms)
    I     Atom           X                Y                Z
 ----------------------------------------------------------------
    1      C      -2.7882818234     1.9175589305     1.5547403300
    2      C      -2.8343179111    -1.4324083893    -1.3806776049
    3      H      -3.4393038296    -2.3544091578    -1.3031690540
    4      N      -1.9326077445    -1.3753158336    -0.2433372014
    5      H      -0.9483991252    -1.1983984149    -0.4441570685
    6      C      -2.0050620068    -1.5355219957    -2.6949605179
    7      O      -2.6745178421    -1.6039799697    -3.7552652564
    8      C      -2.2724697497    -1.5914050784     1.0395353265
    9      O      -3.4521867038    -1.7384156162     1.4137299683
   10      N      -2.4951435689     2.9000890833     0.6849482613
   11      C      -3.4225843344     3.4040184642    -0.3431837561
   12      H      -2.7998431370     4.0488650325    -0.9750652182
   13      H      -4.1867995443     4.0397157640     0.1295453100
   14      C      -1.1209886214    -1.8402709903     2.0136166721
   15      H      -0.8619144819    -2.8960850927     1.8367794731
   16      H      -1.5255504231    -1.7661383203     3.0307023098
   17      C       0.2042206068    -1.0137080865     1.9314111825
   18      C       0.3079662329     0.0025873051     3.1109460012
   19      C       1.4240518461    -1.9647445186     2.1383290550
   20      H       1.2048367705    -2.6665288026     2.9574185655
   21      H       2.2962814025    -1.3628946750     2.4325127327
   22      C       1.7522119736    -2.7360658086     0.8700333062
   23      O       0.9435864492    -3.5042216874     0.3205785460
   24      N       2.9874157886    -2.5062037678     0.3882090439
   25      H       3.6466327052    -1.9024447536     0.8780885258
   26      C       5.0651689397    -2.7385354990    -0.8618783223
   27      O       5.7145376766    -3.2867184525    -1.7859994005
   28      C       2.5708820836     2.3209753209    -0.4140391910
   29      N       1.8587705784     1.8735067343    -1.4386796052
   30      C       2.3310136056     1.5252729607    -2.7770685447
   31      H       3.3613361620     1.8878776445    -2.8777276706
   32      H       1.7003577395     2.0744205050    -3.4940210272
   33      C       4.0462165273     2.5862735035    -0.5277667631
   34      H       4.3500971872     3.2015213598     0.3286105222
   35      H       4.3136714800     3.1051843693    -1.4579860544
   36      C       2.2575881216     0.0163106869    -3.0318798118
   37      H       1.2074827486    -0.3113600168    -2.9956960190
   38      H       2.6201474636    -0.1650623502    -4.0589813730
   39      C       3.0838461674    -0.7707324543    -2.0168158836
   40      H       4.1537589947    -0.5245729960    -2.1382547396
   41      H       2.8015519146    -0.4336462277    -1.0069965051
   42      C       2.8857678670    -2.2857954007    -2.0756258182
   43      H       1.8089092107    -2.5171311205    -2.0908372282
   44      H       3.3319490545    -2.7055052520    -2.9922495172
   45      C       3.5300246106    -2.9969122296    -0.8664059513
   46      H       3.3488282738    -4.0803901870    -0.9532256007
   47      C      -4.0857045470     2.2769942139    -1.1554016833
   48      H      -4.5514194710     2.7301558503    -2.0468570890
   49      H      -4.9191006198     1.8708063415    -0.5597166953
   50      C      -4.1929848846     1.7254103934     2.0505830251
   51      H      -4.1722891650     1.7656232796     3.1508159246
   52      H      -4.8998470993     2.4750741782     1.6773991327
   53      C      -3.1452022782     1.1166036319    -1.5399314184
   54      H      -2.2757497404     1.1037004781    -0.8687645507
   55      H      -2.7381761841     1.2675563272    -2.5539071918
   56      C      -3.8232197664    -0.2535005275    -1.4398101030
   57      H      -4.4338072156    -0.2891814430    -0.5244934977
   58      H      -4.4933010633    -0.4238379694    -2.2971313760
   59      O      -0.7445189054    -1.5324698260    -2.5852629304
   60      O       5.5068617144    -1.9716407931     0.0419150756
   61      O       0.3620863618    -0.3401112111     0.7155126536
   62      Fe      0.1147535060     1.5587984630     0.8008819860
   63      O       0.6611197043     1.2015177737     2.7645424566
   64      O      -1.8560562320     1.1873077047     1.9716575588
   65      O      -1.1737403907     2.9903431501     0.3292073603
   66      O       1.9729365425     2.4894485292     0.7085374918
   67      O       0.1284831946    -0.3743969816     4.2765695883
   68      O       0.5443077668     1.6295404033    -1.2115159261
   69      H      -4.5261181995     0.7158153196     1.7652217397
   70      H       4.6038943364     1.6356090946    -0.4907082595
 ----------------------------------------------------------------
 Nuclear Repulsion Energy =        6282.74813365 hartrees
 There are      164 alpha and      159 beta electrons
No default van der Waals radius is available for Z = 26
	Found R = 2.4400 A in the $van_der_waals section
 Discretize the solute cavity surface with Lebedev spheres
	Using 110 Lebedev grid points for each H atom
	Using 194 Lebedev grid points for other atoms
	Atomic van der Waals radii (Bondi set) will be scaled by 1.20
 Using smooth SwiG surface discretization
 Remove points where switching function is < 1.0e-08
 Keep 4046 surface tesserae and discard 7014 interior tesserae
 Molecular Surface Area = 510.111 Angst**2

 Applying Cartesian multipole field
    Component          Value
    ---------          -----
     (2,0,0)        1.00000E-12
     (0,2,0)        2.00000E-11
     (0,0,2)       -3.00000E-11
 Nucleus-field energy     =-1.3210029631e-08 hartrees
 Read the previous MOs as SCF guess

 -----------------------------------------------------------------------
  General SCF calculation program by
  Eric Jon Sundstrom, Paul Horn, Yuezhi Mao, Dmitri Zuev, Alec White,
  David Stuck, Shaama M.S., Shane Yost, Joonho Lee, David Small,
  Daniel Levine, Susi Lehtola, Hugh Burton, Evgeny Epifanovsky,
  Bang C. Huynh
 -----------------------------------------------------------------------
 Requested basis set is non-standard
 There are 339 shells and 739 basis functions
 Exchange:     0.2000 Hartree-Fock + 0.0800 Slater + 0.7200 B88
 Correlation:  0.1900 VWN1RPA + 0.8100 LYP
 Using SG-1 standard quadrature grid
 Dispersion:   Grimme D3
 A cutoff of  1.0D-12 yielded  48879 shell pairs
 There are    213337 function pairs (    236754 Cartesian)
 Smallest overlap matrix eigenvalue = 2.43E-04
 A unrestricted SCF calculation will be
 performed using DIIS
 SCF converges when DIIS error is below 1.0e-08
 ---------------------------------------
  Cycle       Energy         DIIS error
 ---------------------------------------
    1   -3317.4501540926      2.44e-04  
    2   -3317.9144794448      4.06e-04  
    3   -3317.9743841566      1.74e-04  
    4   -3317.9823675549      1.12e-04  
    5   -3317.9859827927      8.67e-05  
    6   -3317.9875813779      7.28e-05  
    7   -3317.9886278424      6.21e-05  
    8   -3317.9897255546      4.86e-05  
    9   -3317.9904908369      3.65e-05  
   10   -3317.9909267225      2.72e-05  
   11   -3317.9911789327      2.01e-05  
   12   -3317.9913705688      1.20e-05  
   13   -3317.9914562677      5.35e-06  
   14   -3317.9914735971      2.30e-06  
   15   -3317.9914766902      1.06e-06  
   16   -3317.9914773498      4.76e-07  
   17   -3317.9914775170      7.32e-09  Convergence criterion met
 ---------------------------------------
 SCF time:   CPU 27788.53s  wall 1832.00s 
<S^2> =          8.759887702

************** Final PCM Free Energy Summary **************
 G_electrostatic  =      -0.54142494 hartree =    -339.74927731 kcal/mol
 G_cavitation     =       0.00000000 hartree =       0.00000000 kcal/mol
 G_dispersion     =       0.00000000 hartree =       0.00000000 kcal/mol
 G_repulsion      =       0.00000000 hartree =       0.00000000 kcal/mol
 --------------------------------------------------
 Non-electrostatic Free Energy =       0.00000000 hartree =       0.00000000 kcal/mol
 Total                         =      -0.54142494 hartree =    -339.74927731 kcal/mol
 --------------------------------------------------
 SCF Energy (H0 + V/2)                       =   -3317.99147752 
 Solute Internal Energy (H0)                 =   -3317.45005258 
 Total Free Energy (H0 + V/2 + non-elec)     =   -3317.99147752 hartree
                                             = -2082071.07683921 kcal/mol
***********************************************************

 SCF   energy in the final basis set =    -3317.9914775170
 Total energy in the final basis set =    -3317.9914775170
 
 --------------------------------------------------------------
 
                    Orbital Energies (a.u.)
 --------------------------------------------------------------
 
 Alpha MOs
 -- Occupied --
******** -30.1263 -25.9801 -25.9794 -25.9755 -19.1269 -19.1253 -19.1173
-19.1168 -19.0971 -19.0880 -19.0863 -19.0808 -19.0801 -19.0586 -19.0584
-19.0518 -19.0518 -14.4053 -14.3952 -14.3252 -14.3100 -10.2800 -10.2775
-10.2664 -10.2629 -10.2587 -10.2447 -10.2442 -10.2212 -10.2171 -10.2161
-10.1941 -10.1923 -10.1900 -10.1858 -10.1777 -10.1734 -10.1684 -10.1655
-10.1647 -10.1640 -10.1626 -10.1625  -3.6070  -2.3838  -2.3826  -2.3756
 -1.0779  -1.0724  -1.0296  -1.0116  -1.0045  -1.0039  -1.0020  -0.9970
 -0.9951  -0.9595  -0.9375  -0.9133  -0.9101  -0.8953  -0.8851  -0.8483
 -0.8443  -0.7861  -0.7811  -0.7610  -0.7478  -0.7399  -0.7212  -0.7175
 -0.7026  -0.6823  -0.6701  -0.6283  -0.6194  -0.5998  -0.5813  -0.5799
 -0.5448  -0.5408  -0.5359  -0.5303  -0.5156  -0.5121  -0.5067  -0.5024
 -0.4959  -0.4897  -0.4865  -0.4757  -0.4714  -0.4671  -0.4598  -0.4563
 -0.4526  -0.4510  -0.4389  -0.4352  -0.4329  -0.4303  -0.4269  -0.4259
 -0.4226  -0.4185  -0.4169  -0.4092  -0.4076  -0.4069  -0.4040  -0.4017
 -0.3982  -0.3958  -0.3918  -0.3902  -0.3889  -0.3871  -0.3828  -0.3809
 -0.3780  -0.3738  -0.3729  -0.3681  -0.3673  -0.3658  -0.3599  -0.3539
 -0.3523  -0.3496  -0.3463  -0.3433  -0.3411  -0.3359  -0.3309  -0.3243
[...]
    3   0.0196041   0.0084843  -0.0045247   0.0469759   0.0153557  -0.1446938
            7           8           9          10          11          12
    1   0.0915713  -0.1104700   0.1687313  -0.0517672  -0.0062833  -0.0313179
    2   0.0199607  -0.0335270   0.0360787  -0.0237778   0.0250113  -0.0338537
    3   0.1768741   0.0110155  -0.0602005   0.0199510  -0.0082020   0.0359088
           13          14          15          16          17          18
    1   0.0345018  -0.0344131  -0.0148994   0.0278723   0.0081205   0.0182319
    2  -0.0270958  -0.0277749   0.0691278  -0.0051608  -0.0336302   0.0160032
    3  -0.0202512   0.0103413   0.0076538  -0.0647187   0.0077028   0.1686415
           19          20          21          22          23          24
    1   0.0323100   0.0132160  -0.0582240  -0.0526793   0.1163979  -0.0160623
    2   0.0023950   0.0469999  -0.0418463  -0.1185409   0.1397575   0.0588339
    3   0.0255719  -0.0527007  -0.0203661  -0.0711543   0.0747653   0.0608336
           25          26          27          28          29          30
    1  -0.0527163   0.1602194  -0.1133192  -0.0154962   0.0751974  -0.0004859
    2  -0.0583293   0.0104632   0.0826896   0.0139492   0.0226400   0.0078764
    3  -0.0449611  -0.0081714   0.1293205   0.0073158   0.0166835  -0.0180749
           31          32          33          34          35          36
    1  -0.0542747   0.0358225  -0.0082969  -0.0167668  -0.0125992  -0.0161491
    2  -0.0169486  -0.0300381  -0.0155190  -0.0333578  -0.0243553  -0.0005811
    3   0.0084461   0.0422813  -0.0010490  -0.0459480   0.0462782  -0.0131298
           37          38          39          40          41          42
    1   0.0597282  -0.0214416   0.0001721  -0.0610479   0.0222920  -0.0169892
    2   0.0176775   0.0097726   0.0067130  -0.0140363  -0.0231031  -0.0101528
    3  -0.0034259   0.0562758   0.0162022   0.0091145  -0.0628456  -0.0215074
           43          44          45          46          47          48
    1   0.0657104  -0.0243440  -0.0218680   0.0120920  -0.0145252   0.0185660
    2   0.0161869   0.0240366  -0.0563734   0.0768099   0.0094591  -0.0196319
    3   0.0039875   0.0574799  -0.0212331   0.0093910  -0.0007607   0.0411627
           49          50          51          52          53          54
    1   0.0372671   0.0108973  -0.0016290   0.0328840   0.0364094  -0.0558294
    2   0.0175818  -0.0056895  -0.0024961  -0.0336253  -0.0059481   0.0024030
    3  -0.0269459  -0.0051649  -0.0589869   0.0183896  -0.0069677  -0.0414381
           55          56          57          58          59          60
    1  -0.0233170  -0.0241672   0.0339994   0.0389655  -0.1604284  -0.0803330
    2  -0.0106054  -0.0060742  -0.0006304   0.0057951   0.0177245  -0.0919339
    3   0.0603804  -0.0044162  -0.0473479   0.0439775   0.0071746  -0.1164324
           61          62          63          64          65          66
    1  -0.0059336   0.0002452  -0.0378265  -0.0807766   0.0213150   0.0263435
    2   0.0109911   0.0249628  -0.0956393   0.0625338  -0.0295058  -0.0304631
    3   0.0239173  -0.0050109  -0.0023203  -0.0471173   0.0072494  -0.0811509
           67          68          69          70
    1   0.0172792  -0.0002549   0.0197219  -0.0308432
    2   0.0521915  -0.0083634   0.0543545   0.0548955
    3  -0.2011483   0.0219417   0.0186461  -0.0029289
 Max gradient component =       2.011E-01
 RMS gradient           =       5.248E-02
 Computing fast CPCM-SWIG gradient
 Updating gradient with PCM contributions...
 -- total gradient after adding PCM contribution --
---------------------------------------------------
  Atom         X              Y              Z     
---------------------------------------------------
   1       0.000001       0.000030      -0.000007
   2       0.000030      -0.000137       0.000100
   3      -0.000021       0.000010       0.000002
   4      -0.000021       0.000152      -0.000004
   5       0.000009      -0.000056      -0.000013
   6       0.000064       0.000022      -0.000094
   7       0.000005       0.000013       0.000012
   8      -0.000016      -0.000052      -0.000024
   9      -0.000005       0.000008       0.000009
  10      -0.000032      -0.000093      -0.000032
  11      -0.000005       0.000140       0.000026
  12       0.000005      -0.000016      -0.000004
  13      -0.000020      -0.000065       0.000039
  14       0.000077       0.000010       0.000018
  15       0.000000       0.000009      -0.000016
  16      -0.000012       0.000001      -0.000000
  17      -0.000148      -0.000043      -0.000005
  18       0.000040       0.000025       0.000037
  19      -0.000000       0.000012       0.000044
  20       0.000032       0.000005       0.000031
  21      -0.000012       0.000029      -0.000060
  22      -0.000026       0.000009      -0.000012
  23       0.000001       0.000035      -0.000019
  24       0.000057      -0.000061       0.000039
  25       0.000001       0.000018      -0.000002
  26      -0.000006      -0.000015      -0.000006
  27       0.000008      -0.000003       0.000019
  28       0.000043      -0.000098       0.000022
  29      -0.000039       0.000105      -0.000059
  30      -0.000029      -0.000064       0.000055
  31       0.000027      -0.000030       0.000020
  32       0.000015       0.000011      -0.000017
  33       0.000004       0.000064       0.000005
  34      -0.000005      -0.000005       0.000004
  35      -0.000009       0.000001      -0.000008
  36      -0.000043       0.000052      -0.000026
  37       0.000002      -0.000023       0.000007
  38       0.000018       0.000011       0.000011
  39       0.000036       0.000018       0.000039
  40       0.000001      -0.000008      -0.000014
  41       0.000001       0.000023       0.000011
  42      -0.000078      -0.000088       0.000009
  43       0.000006      -0.000006      -0.000007
  44       0.000064       0.000054       0.000011
  45      -0.000013       0.000025       0.000009
  46      -0.000001      -0.000004       0.000021
  47       0.000041      -0.000045       0.000001
  48       0.000012       0.000001      -0.000029
  49      -0.000047       0.000022      -0.000047
  50      -0.000011       0.000041      -0.000047
  51      -0.000007       0.000007       0.000005
  52      -0.000006      -0.000024      -0.000024
  53       0.000017      -0.000023       0.000053
  54       0.000019       0.000013      -0.000041
  55      -0.000053      -0.000018      -0.000025
  56       0.000009       0.000031       0.000029
  57      -0.000023      -0.000011      -0.000029
  58      -0.000010       0.000002      -0.000010
  59      -0.000001      -0.000020       0.000014
  60       0.000009       0.000009      -0.000002
  61      -0.000016       0.000044       0.000036
  62       0.000334      -0.000049       0.000082
  63      -0.000080       0.000014      -0.000012
  64      -0.000030      -0.000014      -0.000010
  65       0.000021       0.000031       0.000014
  66      -0.000235      -0.000003      -0.000034
  67       0.000009      -0.000002       0.000001
  68       0.000033      -0.000013      -0.000123
  69       0.000012      -0.000027       0.000039
  70      -0.000005       0.000009      -0.000011
---------------------------------------------------
 Number of fixed atoms: 0
 Gradient time:  CPU 23105.26 s  wall 1206.64 s

     Step 1	:
        Energy is -3317.9914775170
                            Maximum         Tolerance       Converged?
         Gradient           1.12240723e-04	3.00000000e-04	true
         Displacement       7.98254278e-04	1.20000000e-03	true
         Energy change      1.43728994e-06	1.00000000e-06	false

	 Optimization Converged in 1 cycles

 *****************************************************
             End of BFGS Algorithm
 *****************************************************
		----------------------------------
		   Verification of Optimization
		----------------------------------

 Eigenvalues of Hessian in Optimization Verification
   0.02870400   0.10000000   0.10000000   0.10000000   0.10000000
   0.10000000   0.10000000   0.10000000   0.10000000   0.10000040
   0.10000099   0.10000132   0.10000418   0.10000634   0.10000742
   0.10001467   0.10001775   0.10001903   0.10003215   0.10007073
   0.10013037   0.10015179   0.10015995   0.10032487   0.10045187
   0.10083210   0.10143883   0.10216432   0.10465059   0.10489455
   0.10565138   0.10714154   0.10994028   0.11063330   0.11173928
   0.11183114   0.11399571   0.11610252   0.11695784   0.11743339
   0.11927856   0.11964409   0.11978887   0.12023558   0.12043394
   0.12213401   0.12273804   0.12387193   0.12452872   0.12530709
   0.12608635   0.12631051   0.12682921   0.12695977   0.12754255
   0.12768539   0.12875373   0.13028449   0.13122391   0.13274864
   0.13383863   0.13425079   0.13495357   0.13599843   0.13665106
   0.13940125   0.14082424   0.14097616   0.14175551   0.14486948
   0.14572087   0.14621304   0.14892500   0.14957956   0.15000897
   0.15131878   0.15193356   0.15258745   0.15342306   0.15351726
   0.15560061   0.15648836   0.15724619   0.15817958   0.15850503
   0.16164666   0.16562722   0.16738455   0.17424776   0.17498460
   0.17559900   0.17600690   0.17627438   0.17688954   0.17794537
   0.17840076   0.17930237   0.17995795   0.18197814   0.18382512
   0.18568761   0.18765092   0.18880046   0.19102860   0.19552345
   0.19658956   0.19720363   0.19808808   0.19881240   0.19911039
   0.19929159   0.19956994   0.19976952   0.19987870   0.19991535
   0.19993034   0.19995371   0.19996797   0.19999595   0.20000000
   0.20000000   0.20000000   0.20000000   0.20000000   0.20000000
   0.20000000   0.20000000   0.20000000   0.20000000   0.22247149
   0.37151221   0.39959899   0.41697835   0.42464488   0.43185887
   0.43552699   0.46363334   0.46648405   0.46962033   0.47638572
   0.48098604   0.48450166   0.48831762   0.49376382   0.49884042
   0.49895546   0.50000000   0.50000000   0.50000000   0.50000000
   0.50000000   0.50000000   0.50000000   0.50000000   0.50000000
   0.50000000   0.50000000   0.50000000   0.50000000   0.50000000
   0.50000000   0.50000000   0.50000000   0.50000000   0.50000000
   0.50000000   0.50000000   0.50000000   0.50000000   0.50000000
   0.50000000   0.50000000   0.50000000   0.50000000   0.50000000
   0.50000000   0.50000000   0.50000000   0.50000000   0.50000000
   0.50000000   0.50000000   0.50000000   0.50000000   0.50000000
   0.50000000   0.50000000   0.50000000   0.50000000   0.50000000
   0.50000000   0.50000000   0.50000000   0.50000000   0.50000000
   0.50000000   0.50000000   0.50000000   0.50000000   0.50000000
   0.50000000   0.50000000   0.50000000   0.54557053

 Found a minimum
		---------------------------------
		       End of Verification
		---------------------------------

 Final energy is -3317.991477517021

	******************************
	**  OPTIMIZATION CONVERGED  **
	******************************
 Adding empirical dispersion correction 
 ----------------------------------------------------------------
 Doing -D3(BJ) with
 s6  =   1.00000
 s8  =   1.98890
 a1  =   0.39810
 a2  =   4.42110
 -D3 energy without 3body term =     -0.1790422157 hartrees
 ----------------------------------------------------------------
             Standard Nuclear Orientation (Angstroms)
    I     Atom           X                Y                Z
 ----------------------------------------------------------------
    1      C      -2.7882818234     1.9175589305     1.5547403300
    2      C      -2.8343179111    -1.4324083893    -1.3806776049
    3      H      -3.4393038296    -2.3544091578    -1.3031690540
    4      N      -1.9326077445    -1.3753158336    -0.2433372014
    5      H      -0.9483991252    -1.1983984149    -0.4441570685
    6      C      -2.0050620068    -1.5355219957    -2.6949605179
    7      O      -2.6745178421    -1.6039799697    -3.7552652564
    8      C      -2.2724697497    -1.5914050784     1.0395353265
    9      O      -3.4521867038    -1.7384156162     1.4137299683
   10      N      -2.4951435689     2.9000890833     0.6849482613
   11      C      -3.4225843344     3.4040184642    -0.3431837561
   12      H      -2.7998431370     4.0488650325    -0.9750652182
   13      H      -4.1867995443     4.0397157640     0.1295453100
   14      C      -1.1209886214    -1.8402709903     2.0136166721
   15      H      -0.8619144819    -2.8960850927     1.8367794731
   16      H      -1.5255504231    -1.7661383203     3.0307023098
   17      C       0.2042206068    -1.0137080865     1.9314111825
   18      C       0.3079662329     0.0025873051     3.1109460012
   19      C       1.4240518461    -1.9647445186     2.1383290550
   20      H       1.2048367705    -2.6665288026     2.9574185655
   21      H       2.2962814025    -1.3628946750     2.4325127327
   22      C       1.7522119736    -2.7360658086     0.8700333062
   23      O       0.9435864492    -3.5042216874     0.3205785460
   24      N       2.9874157886    -2.5062037678     0.3882090439
   25      H       3.6466327052    -1.9024447536     0.8780885258
   26      C       5.0651689397    -2.7385354990    -0.8618783223
   27      O       5.7145376766    -3.2867184525    -1.7859994005
   28      C       2.5708820836     2.3209753209    -0.4140391910
   29      N       1.8587705784     1.8735067343    -1.4386796052
   30      C       2.3310136056     1.5252729607    -2.7770685447
   31      H       3.3613361620     1.8878776445    -2.8777276706
   32      H       1.7003577395     2.0744205050    -3.4940210272
   33      C       4.0462165273     2.5862735035    -0.5277667631
   34      H       4.3500971872     3.2015213598     0.3286105222
   35      H       4.3136714800     3.1051843693    -1.4579860544
   36      C       2.2575881216     0.0163106869    -3.0318798118
   37      H       1.2074827486    -0.3113600168    -2.9956960190
   38      H       2.6201474636    -0.1650623502    -4.0589813730
   39      C       3.0838461674    -0.7707324543    -2.0168158836
   40      H       4.1537589947    -0.5245729960    -2.1382547396
   41      H       2.8015519146    -0.4336462277    -1.0069965051
   42      C       2.8857678670    -2.2857954007    -2.0756258182
   43      H       1.8089092107    -2.5171311205    -2.0908372282
   44      H       3.3319490545    -2.7055052520    -2.9922495172
   45      C       3.5300246106    -2.9969122296    -0.8664059513
   46      H       3.3488282738    -4.0803901870    -0.9532256007
   47      C      -4.0857045470     2.2769942139    -1.1554016833
   48      H      -4.5514194710     2.7301558503    -2.0468570890
   49      H      -4.9191006198     1.8708063415    -0.5597166953
   50      C      -4.1929848846     1.7254103934     2.0505830251
   51      H      -4.1722891650     1.7656232796     3.1508159246
   52      H      -4.8998470993     2.4750741782     1.6773991327
   53      C      -3.1452022782     1.1166036319    -1.5399314184
   54      H      -2.2757497404     1.1037004781    -0.8687645507
   55      H      -2.7381761841     1.2675563272    -2.5539071918
   56      C      -3.8232197664    -0.2535005275    -1.4398101030
   57      H      -4.4338072156    -0.2891814430    -0.5244934977
   58      H      -4.4933010633    -0.4238379694    -2.2971313760
   59      O      -0.7445189054    -1.5324698260    -2.5852629304
   60      O       5.5068617144    -1.9716407931     0.0419150756
   61      O       0.3620863618    -0.3401112111     0.7155126536
   62      Fe      0.1147535060     1.5587984630     0.8008819860
   63      O       0.6611197043     1.2015177737     2.7645424566
   64      O      -1.8560562320     1.1873077047     1.9716575588
   65      O      -1.1737403907     2.9903431501     0.3292073603
   66      O       1.9729365425     2.4894485292     0.7085374918
   67      O       0.1284831946    -0.3743969816     4.2765695883
   68      O       0.5443077668     1.6295404033    -1.2115159261
   69      H      -4.5261181995     0.7158153196     1.7652217397
   70      H       4.6038943364     1.6356090946    -0.4907082595
 ----------------------------------------------------------------
 Nuclear Repulsion Energy =        6282.74813365 hartrees
 There are      164 alpha and      159 beta electrons

Z-matrix Print:
$molecule
-3 6
Fe
O  1 1.916851
C  2 1.398951 1 115.070007
C  3 1.560424 2 109.626954 1 -17.736254 0
O  4 1.238148 3 120.244395 2 176.321801 0
O  4 1.296976 3 114.725486 2 -7.379797 0
C  3 1.560536 2 108.691747 1 -130.997924 0
H  7 1.099796 3 108.777715 2 75.558481 0
H  7 1.100665 3 109.363648 2 -166.789452 0
C  7 1.520263 3 111.549966 2 -45.010412 0
O  10 1.243318 7 122.803129 3 -60.121772 0
N  10 1.345630 7 114.217155 3 119.312402 0
H  12 1.019350 10 121.515604 7 3.198811 0
C  12 1.452335 10 126.480877 7 -173.703112 0
H  14 1.101950 12 109.806154 10 -49.416092 0
C  14 1.543686 12 111.414810 10 71.218016 0
H  16 1.101532 14 108.788393 12 -63.012883 0
H  16 1.102467 14 107.878876 12 -179.588901 0
C  16 1.529088 14 111.854153 12 58.184650 0
H  19 1.101387 16 107.776823 14 -48.650108 0
H  19 1.104561 16 110.002516 14 66.855050 0
C  19 1.527250 16 114.516910 14 -169.146623 0
H  22 1.100636 19 109.931847 16 49.211144 0
H  22 1.104212 19 110.850988 16 -69.073014 0
C  22 1.532086 19 111.782714 16 171.008085 0
H  25 1.096895 22 110.814189 19 61.910967 0
H  25 1.101504 22 110.813481 19 -177.888259 0
N  25 1.461357 22 111.810166 19 -58.617815 0
C  28 1.325601 25 127.934570 22 110.660505 0
O  29 1.283004 28 118.052097 25 -175.731667 0
O  28 1.356074 25 115.073904 22 -65.161943 0
C  29 1.503306 28 121.890576 25 2.242832 0
H  32 1.097386 29 108.159609 28 164.271640 0
H  32 1.098230 29 112.734682 28 43.444041 0
H  32 1.102788 29 109.975244 28 -77.417687 0
C  14 1.556742 12 108.049422 10 -168.187243 0
O  36 1.255462 14 115.813806 12 169.553601 0
O  36 1.264936 14 116.553933 12 -12.566044 0
C  3 1.564015 2 113.313774 1 107.069876 0
H  39 1.097100 3 108.993903 2 -142.188937 0
H  39 1.101424 3 107.389254 2 101.665041 0
C  39 1.528619 3 121.247208 2 -16.569279 0
O  42 1.246341 39 120.165063 3 -146.937890 0
N  42 1.344605 39 116.342636 3 40.862924 0
H  44 1.019949 42 117.363326 39 -12.460909 0
C  44 1.452544 42 125.720070 39 164.499449 0
H  46 1.105487 44 108.518439 42 -47.035505 0
C  46 1.539885 44 113.492940 42 71.571227 0
H  48 1.100861 46 107.424361 44 -60.955736 0
H  48 1.101373 46 107.589794 44 -176.713816 0
C  48 1.531965 46 113.764708 44 60.024061 0
H  51 1.098444 48 107.450246 46 -40.730351 0
H  51 1.102998 48 110.230471 46 74.031166 0
C  51 1.542373 48 112.748288 46 -161.882747 0
H  54 1.101988 51 108.578845 48 19.719531 0
H  54 1.103149 51 111.408437 48 -96.165464 0
C  54 1.539354 51 114.814808 48 140.799217 0
H  57 1.096772 54 111.781616 51 76.045587 0
H  57 1.100731 54 110.508748 51 -164.166181 0
N  57 1.473481 54 112.886756 51 -41.076086 0
C  60 1.344557 57 124.337546 54 -48.207545 0
O  61 1.255441 60 118.554264 57 150.044882 0
O  60 1.371424 57 113.763492 54 101.608603 0
C  61 1.501989 60 120.726310 57 -31.877315 0
H  64 1.095863 61 113.785499 60 -2.854989 0
H  64 1.100768 61 108.347979 60 119.976109 0
H  64 1.101162 61 107.914447 60 -124.086229 0
C  46 1.557446 44 109.440047 42 -163.683542 0
O  68 1.255828 46 115.611031 44 179.402609 0
O  68 1.265311 46 117.201404 44 -1.058447 0
$end

 -----------------------------------------------------------------------
                  END OF GEOMETRY OPTIMIZER USING LIBOPT3               
 -----------------------------------------------------------------------
 Total job time:  6457.53s(wall), 106129.69s(cpu) 
 Fri Dec 22 08:38:02 2023

        *************************************************************
        *                                                           *
        *  Thank you very much for using Q-Chem.  Have a nice day.  *
        *                                                           *
        *************************************************************


