
Running Job 1 of 1 C_FeAB_N_ctL_3sextet_SfS_tpssh_augccpvdz_pcmH2O_tddft100.in
qchem C_FeAB_N_ctL_3sextet_SfS_tpssh_augccpvdz_pcmH2O_tddft100.in_2784054.0 /data/scratch/C_FeAB_N_ctL_3sextet_SfS_tpssh_augccpvdz_pcmH2O_tddft10020240523080818/ 0
/opt/qchem/6.0.1/exe/qcprog.exe_s C_FeAB_N_ctL_3sextet_SfS_tpssh_augccpvdz_pcmH2O_tddft100.in_2784054.0 /data/scratch/C_FeAB_N_ctL_3sextet_SfS_tpssh_augccpvdz_pcmH2O_tddft10020240523080818/
                  Welcome to Q-Chem
     A Quantum Leap Into The Future Of Chemistry


 Q-Chem 6.0, Q-Chem, Inc., Pleasanton, CA (2022)

 E. Epifanovsky,  A. T. B. Gilbert,  Xintian Feng,  Joonho Lee,  Yuezhi Mao,  
 N. Mardirossian,  P. Pokhilko,  A. White,  M. Wormit,  M. P. Coons,  
 A. L. Dempwolff,  Zhengting Gan,  D. Hait,  P. R. Horn,  L. D. Jacobson,  
 I. Kaliman,  J. Kussmann,  A. W. Lange,  Ka Un Lao,  D. S. Levine,  Jie Liu,  
 S. C. McKenzie,  A. F. Morrison,  K. Nanda,  F. Plasser,  D. R. Rehn,  
 M. L. Vidal,  Zhi-Qiang You,  Ying Zhu,  B. Alam,  B. Albrecht,  
 A. Aldossary,  E. Alguire,  J. H. Andersen,  V. Athavale,  D. Barton,  
 K. Begam,  A. Behn,  N. Bellonzi,  Y. A. Bernard,  E. J. Berquist,  
 H. Burton,  A. Carreras,  K. Carter-Fenk,  Romit Chakraborty,  
 Chandrima Chakravarty,  Junhan Chen,  A. D. Chien,  K. D. Closser,  
 V. Cofer-Shabica,  L. Cunha,  S. Dasgupta,  Jia Deng,  M. de Wergifosse,  
 M. Diedenhofen,  Hainam Do,  S. Ehlert,  Po-Tung Fang,  S. Fatehi,  
 Qingguo Feng,  T. Friedhoff,  B. Ganoe,  J. Gayvert,  Qinghui Ge,  
 G. Gidofalvi,  M. Goldey,  J. Gomes,  C. Gonzalez-Espinoza,  S. Gulania,  
 A. Gunina,  J. A. Gyamfi,  M. W. D. Hanson-Heine,  P. H. P. Harbach,  
 A. W. Hauser,  M. F. Herbst,  M. Hernandez Vera,  M. Hodecker,  
 Z. C. Holden,  S. Houck,  Xunkun Huang,  Kerwin Hui,  B. C. Huynh,  
 K. Ikeda,  M. Ivanov,  Hyunjun Ji,  Zuxin Jin,  Hanjie Jiang,  B. Kaduk,  
 S. Kaehler,  R. Kang,  K. Khistyaev,  Jaehoon Kim,  Yongbin Kim,  
 P. Klunzinger,  Z. Koczor-Benda,  Joong Hoon Koh,  D. Kosenkov,  
 Saikiran Kotaru,  L. Koulias,  T. Kowalczyk,  C. M. Krauter,  K. Kue,  
 A. Kunitsa,  T. Kus,  A. Landau,  K. V. Lawler,  D. Lefrancois,  S. Lehtola,  
 Rain Li,  Shaozhi Li,  Yi-Pei Li,  Jiashu Liang,  M. Liebenthal,  
 Hung-Hsuan Lin,  You-Sheng Lin,  Fenglai Liu,  Kuan-Yu Liu,  
 M. Loipersberger,  A. Luenser,  C. Malbon,  A. Manjanath,  P. Manohar,  
 E. Mansoor,  S. F. Manzer,  Shan-Ping Mao,  A. V. Marenich,  T. Markovich,  
 S. Mason,  F. Matz,  S. A. Maurer,  P. F. McLaughlin,  M. F. S. J. Menger,  
 J.-M. Mewes,  S. A. Mewes,  P. Morgante,  Mohammad Mostafanejad,  
 J. W. Mullinax,  K. J. Oosterbaan,  G. Paran,  V. Parravicini,  
 Alexander C. Paul,  Suranjan K. Paul,  F. Pavosevic,  Zheng Pei,  S. Prager,  
 E. I. Proynov,  E. Ramos,  B. Rana,  A. E. Rask,  A. Rettig,  R. M. Richard,  
 F. Rob,  E. Rossomme,  T. Scheele,  M. Scheurer,  M. Schneider,  
 P. E. Schneider,  N. Sergueev,  S. M. Sharada,  Hengyuan Shen,  
 W. Skomorowski,  D. W. Small,  C. J. Stein,  Yingli Su,  Yu-Chuan Su,  
 E. J. Sundstrom,  Zhen Tao,  J. Thirman,  Hung-Yi Tsai,  T. Tsuchimochi,  
 N. M. Tubman,  C. Utku,  S. P. Veccham,  O. Vydrov,  J. Wenzel,  
 Jonathan Wong,  J. Witte,  A. Yamada,  Chou-Hsun Yang,  Kun Yao,  
 S. Yeganeh,  S. R. Yost,  A. Zech,  F. Zeller,  Igor Ying Zhang,  
 Xing Zhang,  Yu Zhang,  D. Zuev,  A. Aspuru-Guzik,  A. T. Bell,  
 N. A. Besley,  K. B. Bravaya,  B. R. Brooks,  D. Casanova,  Jeng-Da Chai,  
 Hsing-Ta Chen,  S. Coriani,  C. J. Cramer,  A. E. DePrince, III,  
 R. A. DiStasio Jr.,  A. Dreuw,  B. D. Dunietz,  T. R. Furlani,  
 W. A. Goddard III,  S. Grimme,  S. Hammes-Schiffer,  T. Head-Gordon,  
 W. J. Hehre,  Chao-Ping Hsu,  T.-C. Jagau,  Yousung Jung,  A. Klamt,  
 Jing Kong,  D. S. Lambrecht,  Xiangyuan Li,  WanZhen Liang,  N. J. Mayhall,  
 C. W. McCurdy,  J. B. Neaton,  T. Neudecker,  C. Ochsenfeld,  
 J. A. Parkhill,  R. Peverati,  V. A. Rassolov,  Haisheng Ren,  Yihan Shao,  
 L. V. Slipchenko,  R. P. Steele,  J. E. Subotnik,  A. J. W. Thom,  
 A. Tkatchenko,  D. G. Truhlar,  T. Van Voorhis,  Fan Wang,  
 T. A. Wesolowski,  K. B. Whaley,  H. L. Woodcock III,  P. M. Zimmerman,  
 S. Faraji,  P. M. W. Gill,  M. Head-Gordon,  J. M. Herbert,  A. I. Krylov

 Contributors to earlier versions of Q-Chem not listed above: 
 R. D. Adamson,  B. Austin,  R. Baer,  J. Baker,  G. J. O. Beran,  
 K. Brandhorst,  S. T. Brown,  E. F. C. Byrd,  Arup K. Chakraborty,  
 G. K. L. Chan,  Chun-Min Chang,  Yunqing Chen,  C.-L. Cheng,  
 Siu Hung Chien,  D. M. Chipman,  D. L. Crittenden,  H. Dachsel,  
 R. J. Doerksen,  A. D. Dutoi,  R. G. Edgar,  J. Fosso-Tande,  
 L. Fusti-Molnar,  D. Ghosh,  A. Ghysels,  A. Golubeva-Zadorozhnaya,  
 J. Gonthier,  M. S. Gordon,  S. R. Gwaltney,  G. Hawkins,  J. E. Herr,  
 A. Heyden,  S. Hirata,  E. G. Hohenstein,  G. Kedziora,  F. J. Keil,  
 C. Kelley,  Jihan Kim,  R. A. King,  R. Z. Khaliullin,  P. P. Korambath,  
 W. Kurlancheek,  A. Laurent,  A. M. Lee,  M. S. Lee,  S. V. Levchenko,  
 Ching Yeh Lin,  D. Liotard,  E. Livshits,  R. C. Lochan,  I. Lotan,  
 L. A. Martinez-Martinez,  P. E. Maslen,  N. Nair,  D. P. O'Neill,  
 D. Neuhauser,  E. Neuscamman,  C. M. Oana,  R. Olivares-Amaya,  R. Olson,  
 T. M. Perrine,  B. Peters,  P. A. Pieniazek,  A. Prociuk,  Y. M. Rhee,  
 J. Ritchie,  M. A. Rohrdanz,  E. Rosta,  N. J. Russ,  H. F. Schaefer III,  
 M. W. Schmidt,  N. E. Schultz,  S. Sharma,  N. Shenvi,  C. D. Sherrill,  
 A. C. Simmonett,  A. Sodt,  T. Stein,  D. Stuck,  K. S. Thanthiriwatte,  
 V. Vanovschi,  L. Vogt,  Tao Wang,  A. Warshel,  M. A. Watson,  
 C. F. Williams,  Q. Wu,  X. Xu,  Jun Yang,  W. Zhang,  Yan Zhao

   Please cite Q-Chem as follows:
  "Software for the frontiers of quantum chemistry:
   An overview of developments in the Q-Chem 5 package"
   J. Chem. Phys. 155, 084801 (2021)
   https://doi.org/10.1063/5.0055522 (open access)

 Q-Chem 6.0.2 for Intel X86 EM64T Linux

 Parts of Q-Chem use Armadillo 9.900.5 (Nocturnal Misbehaviour).
 http://arma.sourceforge.net/

 Q-Chem begins on Thu May 23 08:08:19 2024  

 Host: 
0

     Scratch files written to /data/scratch/C_FeAB_N_ctL_3sextet_SfS_tpssh_augccpvdz_pcmH2O_tddft10020240523080818//
 Dec722 |scratch|qcdevops|jenkins|workspace|build_RNUM 8907   
 Processing $rem in /opt/qchem/6.0.1/config/preferences:
 Processing $rem in /home/sgardner/.qchemrc:
 Symmetry turned off for PCM/SM12/SMD calculation

 Checking the input file for inconsistencies... 	...done.

--------------------------------------------------------------
User input:
--------------------------------------------------------------
$molecule
-3 6
N   -2.6690461    2.6220600    0.7742126
C   -4.1030210   -1.7871287   -0.7353220
H   -4.8113114   -2.3827663   -0.1312774
N   -2.7509547   -2.0627018   -0.2748885
H   -2.1601995   -2.4160716   -1.0265919
C   -4.2198782   -2.2697574   -2.2130859
O   -5.3568055   -2.1576245   -2.7365686
C   -2.3546707   -2.1196453    1.0117121
O   -3.0996645   -1.8138143    1.9596237
C   -1.8782082    3.6231146    1.1629468
C   -2.3422298    5.0514036    1.0426881
H   -3.3233995    5.2077668    1.5141775
H   -1.6004398    5.6947433    1.5316735
H   -2.4225889    5.3452428   -0.0161421
C   -0.9337010   -2.6112806    1.2369945
H   -0.5737005   -3.1822230    0.3716409
H   -0.9491270   -3.2647717    2.1208736
C    0.0909601   -1.4756287    1.4815707
C   -0.1466659   -0.7735466    2.8544679
C    1.5149764   -2.0811872    1.6483694
H    1.4591086   -2.9098391    2.3738019
H    2.1619366   -1.3109350    2.0947772
C    2.2000770   -2.6013996    0.3911214
O    1.6200691   -3.2187302   -0.5167362
N    3.5248573   -2.3525938    0.3698826
H    3.9999744   -1.9232441    1.1645975
C    5.8972469   -2.7509174   -0.0030296
O    6.8102407   -3.3003362   -0.6659706
N    1.9392445    2.1684635   -0.7117912
C    0.8817990    2.2546384   -1.5250812
C    1.0650735    2.5248237   -2.9920973
H    1.9900927    3.0694200   -3.2170616
H    1.0756428    1.5718446   -3.5465060
H    0.2019121    3.1072279   -3.3425688
C    3.2675959    1.7319359   -1.1580931
H    3.9611386    1.9762990   -0.3412017
H    3.5672697    2.3138996   -2.0408677
C    3.2289438    0.2292886   -1.4365021
H    2.7263052   -0.2362436   -0.5801072
H    2.5851271    0.0518155   -2.3160095
C    4.5848018   -0.4331087   -1.6770763
H    5.0707007    0.0398102   -2.5485316
H    5.2481677   -0.2526069   -0.8124426
C    4.4532768   -1.9487401   -1.9216780
H    3.5261543   -2.1502102   -2.4848362
H    5.2917680   -2.3115186   -2.5357969
C    4.4716335   -2.8007420   -0.6347118
H    4.2482973   -3.8443209   -0.9116821
C   -4.0539217    2.1341057   -1.2558950
H   -3.3967754    2.7542582   -1.8895921
H   -5.0870851    2.3088908   -1.6077595
C   -3.9967025    2.6835797    0.1780511
H   -4.6766981    2.1190139    0.8364633
H   -4.3249475    3.7302065    0.1828261
C   -3.6924613    0.6521217   -1.4516339
H   -2.6278431    0.5067172   -1.2283302
H   -3.8456847    0.4111094   -2.5189139
C   -4.5187401   -0.3109460   -0.5990810
H   -4.4347148   -0.0405253    0.4619823
H   -5.5820359   -0.2469382   -0.8843014
O   -3.1666517   -2.7130604   -2.7533677
O    6.0068692   -2.1356166    1.0970822
O    0.0487168   -0.5408541    0.4454979
Fe   -0.2063076    1.2903564    0.9434683
O   -0.0711938    0.5268847    2.8145987
O   -2.1851273    1.3621873    0.9376298
O   -0.7219003    3.3431734    1.6120716
O    1.6858385    1.8990174    0.6090867
O   -0.3040505   -1.4319617    3.8871614
O   -0.2845024    2.1088518   -1.0451670
$end

$rem
BASIS  =  gen
CIS_N_ROOTS  =  100
CORRELATION  =  TPSS
EXCHANGE  =  TPSSH
GUI  =  2
JOB_TYPE  =  SP
SCF_CONVERGENCE  =  8
SOLVENT_METHOD  =  PCM
UNRESTRICTED  =  1
MEM_TOTAL  =  30000
$end

$pcm
THEORY  CPCM
$end

$solvent
DIELECTRIC  78.39
$end

$van_der_waals
26   2.44
$end

!----------------------------------------------------------------------
! Basis Set Exchange
! Basis set: aug-cc-pVDZ
!----------------------------------------------------------------------

$rem
BASIS GEN
PURECART 11
$end

$basis
H     0
S   4   1.00
1.301000D+01           1.968500D-02
1.962000D+00           1.379770D-01
4.446000D-01           4.781480D-01
1.220000D-01           5.012400D-01
S   1   1.00
1.220000D-01           1.000000D+00
S   1   1.00
0.0297400              1.0000000
P   1   1.00
7.270000D-01           1.0000000
P   1   1.00
0.1410000              1.0000000
****
C     0
S   9   1.00
6.665000D+03           6.920000D-04
1.000000D+03           5.329000D-03
2.280000D+02           2.707700D-02
6.471000D+01           1.017180D-01
2.106000D+01           2.747400D-01
7.495000D+00           4.485640D-01
2.797000D+00           2.850740D-01
5.215000D-01           1.520400D-02
1.596000D-01          -3.191000D-03
S   9   1.00
6.665000D+03          -1.460000D-04
1.000000D+03          -1.154000D-03
2.280000D+02          -5.725000D-03
6.471000D+01          -2.331200D-02
2.106000D+01          -6.395500D-02
7.495000D+00          -1.499810D-01
2.797000D+00          -1.272620D-01
5.215000D-01           5.445290D-01
1.596000D-01           5.804960D-01
S   1   1.00
1.596000D-01           1.000000D+00
S   1   1.00
0.0469000              1.0000000
P   4   1.00
9.439000D+00           3.810900D-02
2.002000D+00           2.094800D-01
5.456000D-01           5.085570D-01
1.517000D-01           4.688420D-01
P   1   1.00
1.517000D-01           1.000000D+00
P   1   1.00
0.0404100              1.0000000
D   1   1.00
5.500000D-01           1.0000000
D   1   1.00
0.1510000              1.0000000
****
N     0
S   9   1.00
9.046000D+03           7.000000D-04
1.357000D+03           5.389000D-03
3.093000D+02           2.740600D-02
8.773000D+01           1.032070D-01
2.856000D+01           2.787230D-01
1.021000D+01           4.485400D-01
3.838000D+00           2.782380D-01
7.466000D-01           1.544000D-02
2.248000D-01          -2.864000D-03
S   9   1.00
9.046000D+03          -1.530000D-04
1.357000D+03          -1.208000D-03
3.093000D+02          -5.992000D-03
8.773000D+01          -2.454400D-02
2.856000D+01          -6.745900D-02
1.021000D+01          -1.580780D-01
3.838000D+00          -1.218310D-01
7.466000D-01           5.490030D-01
2.248000D-01           5.788150D-01
S   1   1.00
2.248000D-01           1.000000D+00
S   1   1.00
0.0612400              1.0000000
P   4   1.00
1.355000D+01           3.991900D-02
2.917000D+00           2.171690D-01
7.973000D-01           5.103190D-01
2.185000D-01           4.622140D-01
P   1   1.00
2.185000D-01           1.000000D+00
P   1   1.00
0.0561100              1.0000000
D   1   1.00
8.170000D-01           1.0000000
D   1   1.00
0.2300000              1.0000000
****
O     0
S   9   1.00
1.172000D+04           7.100000D-04
1.759000D+03           5.470000D-03
4.008000D+02           2.783700D-02
1.137000D+02           1.048000D-01
3.703000D+01           2.830620D-01
1.327000D+01           4.487190D-01
5.025000D+00           2.709520D-01
1.013000D+00           1.545800D-02
3.023000D-01          -2.585000D-03
S   9   1.00
1.172000D+04          -1.600000D-04
1.759000D+03          -1.263000D-03
4.008000D+02          -6.267000D-03
1.137000D+02          -2.571600D-02
3.703000D+01          -7.092400D-02
1.327000D+01          -1.654110D-01
5.025000D+00          -1.169550D-01
1.013000D+00           5.573680D-01
3.023000D-01           5.727590D-01
S   1   1.00
3.023000D-01           1.000000D+00
S   1   1.00
0.0789600              1.0000000
P   4   1.00
1.770000D+01           4.301800D-02
3.854000D+00           2.289130D-01
1.046000D+00           5.087280D-01
2.753000D-01           4.605310D-01
P   1   1.00
2.753000D-01           1.000000D+00
P   1   1.00
0.0685600              1.0000000
D   1   1.00
1.185000D+00           1.0000000
D   1   1.00
0.3320000              1.0000000
****
Fe     0
S   20   1.00
4.316265D+06           8.048803D-06
6.463424D+05           6.258306D-05
1.470897D+05           3.290239D-04
4.166152D+04           1.387355D-03
1.359077D+04           5.023256D-03
4.905750D+03           1.610140D-02
1.912746D+03           4.590034D-02
7.926043D+02           1.136154D-01
3.448065D+02           2.283869D-01
1.558999D+02           3.221159D-01
7.223091D+01           2.383661D-01
3.272506D+01           7.404667D-02
1.566762D+01           9.214197D-02
7.503483D+00           9.339790D-02
3.312223D+00           1.573965D-02
1.558471D+00          -4.186682D-04
6.839140D-01           5.376318D-05
1.467570D-01          -3.816654D-05
7.058300D-02           4.319603D-05
3.144900D-02          -3.401019D-06
S   20   1.00
4.316265D+06          -4.155954D-06
6.463424D+05          -3.231401D-05
1.470897D+05          -1.699525D-04
4.166152D+04          -7.171369D-04
1.359077D+04          -2.603625D-03
4.905750D+03          -8.399109D-03
1.912746D+03          -2.434109D-02
7.926043D+02          -6.251948D-02
3.448065D+02          -1.365929D-01
1.558999D+02          -2.312707D-01
7.223091D+01          -2.383734D-01
3.272506D+01           3.123837D-02
1.566762D+01           5.086818D-01
7.503483D+00           4.987695D-01
3.312223D+00           9.033552D-02
1.558471D+00          -6.005337D-03
6.839140D-01           2.312454D-04
1.467570D-01          -5.643680D-04
7.058300D-02           4.992260D-04
3.144900D-02          -1.015293D-04
S   20   1.00
4.316265D+06           9.532178D-07
6.463424D+05           7.414605D-06
1.470897D+05           3.898393D-05
4.166152D+04           1.647152D-04
1.359077D+04           5.985980D-04
4.905750D+03           1.942390D-03
1.912746D+03           5.687237D-03
7.926043D+02           1.501329D-02
3.448065D+02           3.452455D-02
1.558999D+02           6.495820D-02
7.223091D+01           7.716194D-02
3.272506D+01          -1.873411D-02
1.566762D+01          -3.009185D-01
7.503483D+00          -4.554661D-01
3.312223D+00           1.286463D-01
1.558471D+00           7.183316D-01
6.839140D-01           4.051743D-01
1.467570D-01           2.168227D-02
7.058300D-02          -8.343566D-03
3.144900D-02           3.658979D-03
S   20   1.00
4.316265D+06          -2.063008D-07
6.463424D+05          -1.604169D-06
1.470897D+05          -8.438437D-06
4.166152D+04          -3.563151D-05
1.359077D+04          -1.295998D-04
4.905750D+03          -4.201534D-04
1.912746D+03          -1.231954D-03
7.926043D+02          -3.248922D-03
3.448065D+02          -7.493717D-03
1.558999D+02          -1.410102D-02
7.223091D+01          -1.691600D-02
3.272506D+01           4.218996D-03
1.566762D+01           6.833810D-02
7.503483D+00           1.098201D-01
3.312223D+00          -4.009005D-02
1.558471D+00          -2.174739D-01
6.839140D-01          -2.465135D-01
1.467570D-01           2.731435D-01
7.058300D-02           5.748321D-01
3.144900D-02           3.012713D-01
S   20   1.00
4.316265D+06          -4.009367D-07
6.463424D+05          -3.189255D-06
1.470897D+05          -1.623079D-05
4.166152D+04          -7.157920D-05
1.359077D+04          -2.463958D-04
4.905750D+03          -8.544907D-04
1.912746D+03          -2.307593D-03
7.926043D+02          -6.728292D-03
3.448065D+02          -1.366165D-02
1.558999D+02          -3.062240D-02
7.223091D+01          -2.631137D-02
3.272506D+01          -9.760183D-03
1.566762D+01           1.801906D-01
7.503483D+00           1.529634D-01
3.312223D+00           5.505413D-02
1.558471D+00          -9.551364D-01
6.839140D-01           2.586813D-01
1.467570D-01           1.834049D+00
7.058300D-02          -9.333240D-01
3.144900D-02          -6.981605D-01
S   1   1.00
3.144900D-02           1.000000D+00
S   1   1.00
1.401000D-02           1.000000D+00
P   16   1.00
1.774569D+04           4.100000D-05
4.200721D+03           3.690000D-04
1.364429D+03           2.129000D-03
5.220806D+02           9.369000D-03
2.214595D+02           3.309700D-02
1.009096D+02           9.443100D-02
4.840115D+01           2.080770D-01
2.398536D+01           3.323330D-01
1.218250D+01           3.329870D-01
6.242298D+00           1.568430D-01
3.110944D+00           2.154900D-02
1.509958D+00          -2.095000D-03
7.108450D-01          -1.739000D-03
2.731900D-01          -3.000000D-04
1.042330D-01           2.900000D-05
3.829100D-02          -1.100000D-05
P   16   1.00
1.774569D+04          -1.500000D-05
4.200721D+03          -1.300000D-04
1.364429D+03          -7.510000D-04
5.220806D+02          -3.329000D-03
2.214595D+02          -1.191200D-02
1.009096D+02          -3.493300D-02
4.840115D+01          -7.998900D-02
2.398536D+01          -1.346360D-01
1.218250D+01          -1.385980D-01
6.242298D+00           3.027800D-02
3.110944D+00           3.332160D-01
1.509958D+00           4.561530D-01
7.108450D-01           2.850510D-01
2.731900D-01           4.614400D-02
1.042330D-01          -3.249000D-03
3.829100D-02           1.357000D-03
P   16   1.00
1.774569D+04           5.000000D-06
4.200721D+03           4.200000D-05
1.364429D+03           2.410000D-04
5.220806D+02           1.085000D-03
2.214595D+02           3.831000D-03
1.009096D+02           1.142300D-02
4.840115D+01           2.579200D-02
2.398536D+01           4.481800D-02
1.218250D+01           4.459800D-02
6.242298D+00          -1.117700D-02
3.110944D+00          -1.381340D-01
1.509958D+00          -1.882850D-01
7.108450D-01          -1.073990D-01
2.731900D-01           4.448630D-01
1.042330D-01           6.402390D-01
3.829100D-02           6.445700D-02
P   16   1.00
1.774569D+04           3.000000D-06
4.200721D+03           2.900000D-05
1.364429D+03           1.650000D-04
5.220806D+02           7.340000D-04
2.214595D+02           2.626000D-03
1.009096D+02           7.725000D-03
4.840115D+01           1.773300D-02
2.398536D+01           3.005500D-02
1.218250D+01           3.109400D-02
6.242298D+00          -1.004800D-02
3.110944D+00          -8.830600D-02
1.509958D+00          -1.298240D-01
7.108450D-01          -7.693700D-02
2.731900D-01           2.126610D-01
1.042330D-01           5.730610D-01
3.829100D-02           3.696510D-01
P   1   1.00
3.829100D-02           1.000000D+00
P   1   1.00
1.407000D-02           1.000000D+00
D   8   1.00
1.133440D+02           3.530000D-03
3.364140D+01           2.578400D-02
1.233100D+01           9.911900D-02
4.994780D+00           2.390730D-01
2.072800D+00           3.571990D-01
8.307530D-01           3.621880D-01
3.091780D-01           2.364610D-01
1.001300D-01           6.011800D-02
D   8   1.00
1.133440D+02          -3.890000D-03
3.364140D+01          -2.844200D-02
1.233100D+01          -1.124290D-01
4.994780D+00          -2.742570D-01
2.072800D+00          -3.155460D-01
8.307530D-01           5.710900D-02
3.091780D-01           5.636040D-01
1.001300D-01           3.846370D-01
D   1   1.00
1.001300D-01           1.000000D+00
D   1   1.00
3.243000D-02           1.000000D+00
F   2   1.00
3.224300D+00           4.222490D-01
7.758000D-01           7.714680D-01
F   1   1.00
2.749000D-01           1.000000D+00
****
$end



--------------------------------------------------------------
 ----------------------------------------------------------------
             Standard Nuclear Orientation (Angstroms)
    I     Atom           X                Y                Z
 ----------------------------------------------------------------
    1      N      -2.6690461000     2.6220600000     0.7742126000
    2      C      -4.1030210000    -1.7871287000    -0.7353220000
    3      H      -4.8113114000    -2.3827663000    -0.1312774000
    4      N      -2.7509547000    -2.0627018000    -0.2748885000
    5      H      -2.1601995000    -2.4160716000    -1.0265919000
    6      C      -4.2198782000    -2.2697574000    -2.2130859000
    7      O      -5.3568055000    -2.1576245000    -2.7365686000
    8      C      -2.3546707000    -2.1196453000     1.0117121000
    9      O      -3.0996645000    -1.8138143000     1.9596237000
   10      C      -1.8782082000     3.6231146000     1.1629468000
   11      C      -2.3422298000     5.0514036000     1.0426881000
   12      H      -3.3233995000     5.2077668000     1.5141775000
   13      H      -1.6004398000     5.6947433000     1.5316735000
   14      H      -2.4225889000     5.3452428000    -0.0161421000
   15      C      -0.9337010000    -2.6112806000     1.2369945000
   16      H      -0.5737005000    -3.1822230000     0.3716409000
   17      H      -0.9491270000    -3.2647717000     2.1208736000
   18      C       0.0909601000    -1.4756287000     1.4815707000
   19      C      -0.1466659000    -0.7735466000     2.8544679000
   20      C       1.5149764000    -2.0811872000     1.6483694000
   21      H       1.4591086000    -2.9098391000     2.3738019000
   22      H       2.1619366000    -1.3109350000     2.0947772000
   23      C       2.2000770000    -2.6013996000     0.3911214000
   24      O       1.6200691000    -3.2187302000    -0.5167362000
   25      N       3.5248573000    -2.3525938000     0.3698826000
   26      H       3.9999744000    -1.9232441000     1.1645975000
   27      C       5.8972469000    -2.7509174000    -0.0030296000
   28      O       6.8102407000    -3.3003362000    -0.6659706000
   29      N       1.9392445000     2.1684635000    -0.7117912000
   30      C       0.8817990000     2.2546384000    -1.5250812000
   31      C       1.0650735000     2.5248237000    -2.9920973000
   32      H       1.9900927000     3.0694200000    -3.2170616000
   33      H       1.0756428000     1.5718446000    -3.5465060000
   34      H       0.2019121000     3.1072279000    -3.3425688000
   35      C       3.2675959000     1.7319359000    -1.1580931000
   36      H       3.9611386000     1.9762990000    -0.3412017000
   37      H       3.5672697000     2.3138996000    -2.0408677000
   38      C       3.2289438000     0.2292886000    -1.4365021000
   39      H       2.7263052000    -0.2362436000    -0.5801072000
   40      H       2.5851271000     0.0518155000    -2.3160095000
   41      C       4.5848018000    -0.4331087000    -1.6770763000
   42      H       5.0707007000     0.0398102000    -2.5485316000
   43      H       5.2481677000    -0.2526069000    -0.8124426000
   44      C       4.4532768000    -1.9487401000    -1.9216780000
   45      H       3.5261543000    -2.1502102000    -2.4848362000
   46      H       5.2917680000    -2.3115186000    -2.5357969000
   47      C       4.4716335000    -2.8007420000    -0.6347118000
   48      H       4.2482973000    -3.8443209000    -0.9116821000
   49      C      -4.0539217000     2.1341057000    -1.2558950000
   50      H      -3.3967754000     2.7542582000    -1.8895921000
   51      H      -5.0870851000     2.3088908000    -1.6077595000
   52      C      -3.9967025000     2.6835797000     0.1780511000
   53      H      -4.6766981000     2.1190139000     0.8364633000
   54      H      -4.3249475000     3.7302065000     0.1828261000
   55      C      -3.6924613000     0.6521217000    -1.4516339000
   56      H      -2.6278431000     0.5067172000    -1.2283302000
   57      H      -3.8456847000     0.4111094000    -2.5189139000
   58      C      -4.5187401000    -0.3109460000    -0.5990810000
   59      H      -4.4347148000    -0.0405253000     0.4619823000
   60      H      -5.5820359000    -0.2469382000    -0.8843014000
   61      O      -3.1666517000    -2.7130604000    -2.7533677000
   62      O       6.0068692000    -2.1356166000     1.0970822000
   63      O       0.0487168000    -0.5408541000     0.4454979000
   64      Fe     -0.2063076000     1.2903564000     0.9434683000
   65      O      -0.0711938000     0.5268847000     2.8145987000
   66      O      -2.1851273000     1.3621873000     0.9376298000
   67      O      -0.7219003000     3.3431734000     1.6120716000
   68      O       1.6858385000     1.8990174000     0.6090867000
   69      O      -0.3040505000    -1.4319617000     3.8871614000
   70      O      -0.2845024000     2.1088518000    -1.0451670000
 ----------------------------------------------------------------
 Nuclear Repulsion Energy =        6047.25106075 hartrees
 There are      164 alpha and      159 beta electrons
 Requested basis set is non-standard
 There are 520 shells and 1226 basis functions

 Total QAlloc Memory Limit  30000 MB
 Mega-Array Size       188 MB
 MEM_STATIC part       192 MB

 Using C-PCM dielectric factor f(eps) = (eps-1)/eps = 0.987243
No default van der Waals radius is available for Z = 26
	Found R = 2.4400 A in the $van_der_waals section
 Discretize the solute cavity surface with Lebedev spheres
	Using 110 Lebedev grid points for each H atom
	Using 194 Lebedev grid points for other atoms
	Atomic van der Waals radii (Bondi set) will be scaled by 1.20
 Using smooth SwiG surface discretization
 Remove points where switching function is < 1.0e-08
 Keep 4148 surface tesserae and discard 6912 interior tesserae
 Molecular Surface Area = 533.374 Angst**2

 A cutoff of  1.0D-12 yielded 118730 shell pairs
 There are    628224 function pairs (    715556 Cartesian)
 Smallest overlap matrix eigenvalue = 1.01E-06

 Scale SEOQF with 1.000000e-02/1.000000e-02/1.000000e-01

 Standard Electronic Orientation quadrupole field applied
 Nucleus-field energy     =    -0.0000000650 hartrees
 ================ Generating on-the-fly SAD Guess ================
 Attempting to make child job directory: /data/scratch/C_FeAB_N_ctL_3sextet_SfS_tpssh_augccpvdz_pcmH2O_tddft10020240523080818//Frg1/
 Attempting to make child job directory: /data/scratch/C_FeAB_N_ctL_3sextet_SfS_tpssh_augccpvdz_pcmH2O_tddft10020240523080818//Frg2/
 Attempting to make child job directory: /data/scratch/C_FeAB_N_ctL_3sextet_SfS_tpssh_augccpvdz_pcmH2O_tddft10020240523080818//Frg3/
 Attempting to make child job directory: /data/scratch/C_FeAB_N_ctL_3sextet_SfS_tpssh_augccpvdz_pcmH2O_tddft10020240523080818//Frg4/
 Attempting to make child job directory: /data/scratch/C_FeAB_N_ctL_3sextet_SfS_tpssh_augccpvdz_pcmH2O_tddft10020240523080818//Frg5/
 Creating input file /data/scratch/C_FeAB_N_ctL_3sextet_SfS_tpssh_augccpvdz_pcmH2O_tddft10020240523080818/Frg1.input
 using default PutDataFrgm: nothing
 calling putenv with: QCSCRATCH=/data/scratch/C_FeAB_N_ctL_3sextet_SfS_tpssh_augccpvdz_pcmH2O_tddft10020240523080818/ 
 Spawning Job For Fragment 0
 Done Job For Fragment 0
 calling putenv with: QCSCRATCH=/data/scratch 
 calling putenv with: QCTHREADS=20 
 Creating input file /data/scratch/C_FeAB_N_ctL_3sextet_SfS_tpssh_augccpvdz_pcmH2O_tddft10020240523080818/Frg2.input
 using default PutDataFrgm: nothing
 calling putenv with: QCSCRATCH=/data/scratch/C_FeAB_N_ctL_3sextet_SfS_tpssh_augccpvdz_pcmH2O_tddft10020240523080818/ 
 Spawning Job For Fragment 1
 Done Job For Fragment 1
 calling putenv with: QCSCRATCH=/data/scratch 
 calling putenv with: QCTHREADS=20 
 Creating input file /data/scratch/C_FeAB_N_ctL_3sextet_SfS_tpssh_augccpvdz_pcmH2O_tddft10020240523080818/Frg3.input
 using default PutDataFrgm: nothing
 calling putenv with: QCSCRATCH=/data/scratch/C_FeAB_N_ctL_3sextet_SfS_tpssh_augccpvdz_pcmH2O_tddft10020240523080818/ 
 Spawning Job For Fragment 2
 Done Job For Fragment 2
 calling putenv with: QCSCRATCH=/data/scratch 
 calling putenv with: QCTHREADS=20 
 Creating input file /data/scratch/C_FeAB_N_ctL_3sextet_SfS_tpssh_augccpvdz_pcmH2O_tddft10020240523080818/Frg4.input
 using default PutDataFrgm: nothing
 calling putenv with: QCSCRATCH=/data/scratch/C_FeAB_N_ctL_3sextet_SfS_tpssh_augccpvdz_pcmH2O_tddft10020240523080818/ 
 Spawning Job For Fragment 3
 Done Job For Fragment 3
 calling putenv with: QCSCRATCH=/data/scratch 
 calling putenv with: QCTHREADS=20 
 Creating input file /data/scratch/C_FeAB_N_ctL_3sextet_SfS_tpssh_augccpvdz_pcmH2O_tddft10020240523080818/Frg5.input
 using default PutDataFrgm: nothing
 calling putenv with: QCSCRATCH=/data/scratch/C_FeAB_N_ctL_3sextet_SfS_tpssh_augccpvdz_pcmH2O_tddft10020240523080818/ 
 Spawning Job For Fragment 4
 Done Job For Fragment 4
 calling putenv with: QCSCRATCH=/data/scratch 
 calling putenv with: QCTHREADS=20 
 Time for running child jobs:  CPU 0.02 s  wall 90.00 s
 ============= Method Specific SAD Guess Constructed =============
 Guess from on-the-fly superposition of atomic densities
 Warning: Energy on first SCF cycle will be non-variational

 -----------------------------------------------------------------------
  General SCF calculation program by
  Eric Jon Sundstrom, Paul Horn, Yuezhi Mao, Dmitri Zuev, Alec White,
  David Stuck, Shaama M.S., Shane Yost, Joonho Lee, David Small,
  Daniel Levine, Susi Lehtola, Hugh Burton, Evgeny Epifanovsky,
  Bang C. Huynh
 -----------------------------------------------------------------------
 Exchange:     0.1000 Hartree-Fock + 0.9000 TPSS
 Correlation:  1.0000 TPSS
 Using SG-2 standard quadrature grid
 using 20 threads for integral computing
 -------------------------------------------------------
 OpenMP Integral computing Module                
 Release: version 1.0, May 2013, Q-Chem Inc. Pittsburgh 
 -------------------------------------------------------
 C-PCM solvent model [f = (eps-1)/eps], solve by matrix inversion
 A unrestricted SCF calculation will be
 performed using DIIS
 SCF converges when DIIS error is below 1.0e-08
 ---------------------------------------
  Cycle       Energy         DIIS error
 ---------------------------------------
    1   -3331.1127978518      9.83e-03  
    2   -3316.7148149744      1.50e-03  
    3   -3304.3217437618      5.11e-03  
    4   -3311.9638541597      2.93e-03  
    5   -3317.3462969251      1.24e-03  
    6   -3317.9403544479      4.38e-04  
    7   -3318.0109766088      2.88e-04  
    8   -3318.0557046408      1.09e-04  
    9   -3318.0614313339      5.91e-05  
   10   -3318.0624775536      3.92e-05  
   11   -3318.0632717068      1.39e-05  
   12   -3318.0633616099      7.57e-06  
   13   -3318.0633955312      3.08e-06  
   14   -3318.0634001259      1.46e-06  
   15   -3318.0634017081      7.25e-07  
   16   -3318.0634022906      3.85e-07  
   17   -3318.0634024248      2.06e-07  
   18   -3318.0634024486      9.33e-08  
   19   -3318.0634024564      3.82e-08  
   20   -3318.0634024562      2.11e-08  
   21   -3318.0634024598      8.79e-09  Convergence criterion met
 ---------------------------------------
 SCF time:   CPU 276176.55s  wall 15802.00s 
<S^2> =          8.757291560

************** Final PCM Free Energy Summary **************
 G_electrostatic  =      -0.52582137 hartree =    -329.95789153 kcal/mol
 G_cavitation     =       0.00000000 hartree =       0.00000000 kcal/mol
 G_dispersion     =       0.00000000 hartree =       0.00000000 kcal/mol
 G_repulsion      =       0.00000000 hartree =       0.00000000 kcal/mol
 --------------------------------------------------
 Non-electrostatic Free Energy =       0.00000000 hartree =       0.00000000 kcal/mol
 Total                         =      -0.52582137 hartree =    -329.95789153 kcal/mol
 --------------------------------------------------
 SCF Energy (H0 + V/2)                       =   -3318.06340246 
 Solute Internal Energy (H0)                 =   -3317.53758109 
 Total Free Energy (H0 + V/2 + non-elec)     =   -3318.06340246 hartree
                                             = -2082116.21042204 kcal/mol
***********************************************************

 SCF   energy in the final basis set =    -3318.0634024598
 Total energy in the final basis set =    -3318.0634024598
 
 MAX_CIS_SUBSPACE fits in available memory
 Direct TDDFT/TDA calculation will be performed
 Exchange:     0.1000 Hartree-Fock + 0.9000 TPSS
 Correlation:  1.0000 TPSS
 Using SG-2 standard quadrature grid
 Adding PCM contribution to the XC response (LR-PCM)
 CIS energy converged when residual is below 10e- 6
 ---------------------------------------------------
 Iter    Rts Conv    Rts Left    Ttl Dev     Max Dev
 ---------------------------------------------------
   1         0         100      0.005241    0.000645
   2         0         100      0.001789    0.000120
   3        13          87      0.000561    0.000054
   4        66          34      0.000113    0.000009
   5        95           5      0.000034    0.000002
   6       100           0      0.000025    0.000001    Roots Converged
 ---------------------------------------------------
 
 ---------------------------------------------------
         TDDFT/TDA Excitation Energies              
 ---------------------------------------------------

 Excited state   1: excitation energy (eV) =    1.9015
 Total energy for state  1:                 -3317.99352292 au
    <S**2>     :  8.7778
    Trans. Mom.:  0.1390 X  -0.0909 Y  -0.0442 Z
    Strength   :     0.0013766332
    D(  159) --> S(    1) amplitude =  0.7937 beta
    D(  159) --> S(    2) amplitude = -0.5930 beta

 Excited state   2: excitation energy (eV) =    2.0157
 Total energy for state  2:                 -3317.98932576 au
    <S**2>     :  8.7836
    Trans. Mom.: -0.1515 X   0.1181 Y   0.0284 Z
    Strength   :     0.0018618335
    D(  158) --> S(    1) amplitude =  0.9670 beta
    D(  159) --> S(    1) amplitude = -0.1601 beta

 Excited state   3: excitation energy (eV) =    2.1186
 Total energy for state  3:                 -3317.98554498 au
    <S**2>     :  8.7815
    Trans. Mom.:  0.4093 X  -0.0643 Y  -0.1218 Z
    Strength   :     0.0096778020
    D(  158) --> S(    2) amplitude =  0.9627 beta

 Excited state   4: excitation energy (eV) =    2.2217
 Total energy for state  4:                 -3317.98175787 au
    <S**2>     :  8.7730
    Trans. Mom.:  0.7211 X  -0.6464 Y   0.0296 Z
    Strength   :     0.0510874221
    D(  158) --> S(    1) amplitude =  0.1697 beta
    D(  158) --> S(    3) amplitude = -0.1713 beta
    D(  159) --> S(    1) amplitude =  0.5060 beta
    D(  159) --> S(    2) amplitude =  0.7297 beta
    D(  159) --> S(    3) amplitude = -0.2868 beta

 Excited state   5: excitation energy (eV) =    2.2767
 Total energy for state  5:                 -3317.97973686 au
    <S**2>     :  8.7727
    Trans. Mom.:  0.1478 X  -0.1603 Y   0.0203 Z
    Strength   :     0.0026748853
    D(  158) --> S(    2) amplitude = -0.1705 beta
    D(  159) --> S(    1) amplitude =  0.1745 beta
    D(  159) --> S(    2) amplitude =  0.1607 beta
    D(  159) --> S(    3) amplitude =  0.9303 beta

 Excited state   6: excitation energy (eV) =    2.4346
 Total energy for state  6:                 -3317.97393213 au
    <S**2>     :  8.7711
    Trans. Mom.: -0.1752 X  -0.4564 Y   0.2284 Z
    Strength   :     0.0173628024
    D(  158) --> S(    3) amplitude =  0.9555 beta

 Excited state   7: excitation energy (eV) =    2.6324
 Total energy for state  7:                 -3317.96666281 au
    <S**2>     :  8.7781
    Trans. Mom.: -0.0278 X   0.1192 Y  -0.0743 Z
    Strength   :     0.0013224539
    D(  154) --> S(    1) amplitude = -0.2552 beta
    D(  155) --> S(    1) amplitude =  0.4292 beta
    D(  155) --> S(    2) amplitude = -0.1547 beta
    D(  157) --> S(    1) amplitude =  0.7212 beta
    D(  157) --> S(    2) amplitude = -0.2471 beta

 Excited state   8: excitation energy (eV) =    2.7666
 Total energy for state  8:                 -3317.96173005 au
    <S**2>     :  8.7774
    Trans. Mom.: -0.1028 X   0.1689 Y   0.0356 Z
    Strength   :     0.0027350796
    D(  153) --> S(    1) amplitude = -0.1811 beta
    D(  153) --> S(    2) amplitude =  0.1578 beta
    D(  154) --> S(    1) amplitude =  0.1846 beta
    D(  154) --> S(    2) amplitude = -0.2717 beta
    D(  155) --> S(    1) amplitude =  0.2940 beta
    D(  155) --> S(    2) amplitude =  0.3365 beta
    D(  157) --> S(    1) amplitude =  0.3056 beta
    D(  157) --> S(    2) amplitude =  0.6623 beta

 Excited state   9: excitation energy (eV) =    2.8208
 Total energy for state  9:                 -3317.95974102 au
    <S**2>     :  8.7757
    Trans. Mom.: -0.1846 X  -0.1402 Y   0.1000 Z
    Strength   :     0.0044017812
    D(  153) --> S(    1) amplitude =  0.2431 beta
    D(  153) --> S(    2) amplitude = -0.3561 beta
    D(  154) --> S(    1) amplitude = -0.2902 beta
    D(  154) --> S(    2) amplitude =  0.3797 beta
    D(  154) --> S(    3) amplitude = -0.1729 beta
    D(  155) --> S(    2) amplitude =  0.3937 beta
    D(  155) --> S(    3) amplitude =  0.1961 beta
    D(  156) --> S(    1) amplitude =  0.1585 beta
    D(  156) --> S(    2) amplitude = -0.2244 beta
    D(  157) --> S(    2) amplitude =  0.2778 beta
    D(  157) --> S(    3) amplitude =  0.3124 beta

 Excited state  10: excitation energy (eV) =    2.8721
 Total energy for state 10:                 -3317.95785602 au
    <S**2>     :  8.7738
    Trans. Mom.:  0.0245 X   0.0420 Y  -0.0729 Z
    Strength   :     0.0005401497
    D(  153) --> S(    1) amplitude = -0.3894 beta
    D(  153) --> S(    2) amplitude = -0.3632 beta
    D(  154) --> S(    1) amplitude =  0.4509 beta
    D(  154) --> S(    2) amplitude =  0.4510 beta
    D(  155) --> S(    1) amplitude =  0.2597 beta
    D(  155) --> S(    2) amplitude =  0.1598 beta
    D(  156) --> S(    1) amplitude = -0.2620 beta
    D(  156) --> S(    2) amplitude = -0.2295 beta

 Excited state  11: excitation energy (eV) =    3.0620
 Total energy for state 11:                 -3317.95087432 au
    <S**2>     :  8.7723
    Trans. Mom.: -0.0289 X   0.2013 Y  -0.1113 Z
    Strength   :     0.0040309962
    D(  153) --> S(    3) amplitude = -0.2510 beta
    D(  154) --> S(    3) amplitude =  0.2158 beta
    D(  155) --> S(    1) amplitude =  0.2782 beta
    D(  155) --> S(    3) amplitude =  0.5144 beta
    D(  156) --> S(    3) amplitude = -0.1852 beta
    D(  157) --> S(    1) amplitude = -0.1831 beta
    D(  157) --> S(    3) amplitude =  0.5630 beta
    D(  159) --> S(    4) amplitude = -0.1700 beta

 Excited state  12: excitation energy (eV) =    3.0871
 Total energy for state 12:                 -3317.94995501 au
    <S**2>     :  8.7801
    Trans. Mom.:  0.0310 X  -0.0682 Y   0.0415 Z
    Strength   :     0.0005547286
    D(  150) --> S(    1) amplitude = -0.1759 beta
    D(  153) --> S(    1) amplitude =  0.1525 beta
    D(  154) --> S(    1) amplitude = -0.2896 beta
    D(  155) --> S(    1) amplitude =  0.6541 beta
    D(  155) --> S(    3) amplitude = -0.1629 beta
    D(  157) --> S(    1) amplitude = -0.5645 beta
    D(  157) --> S(    3) amplitude = -0.1810 beta

 Excited state  13: excitation energy (eV) =    3.1509
 Total energy for state 13:                 -3317.94761011 au
    <S**2>     :  8.7788
    Trans. Mom.:  0.0297 X  -0.0504 Y  -0.0310 Z
    Strength   :     0.0003380608
    D(  153) --> S(    1) amplitude = -0.1826 beta
    D(  154) --> S(    1) amplitude =  0.1913 beta
    D(  154) --> S(    2) amplitude =  0.1507 beta
    D(  155) --> S(    2) amplitude = -0.4129 beta
    D(  156) --> S(    1) amplitude =  0.7286 beta
    D(  157) --> S(    2) amplitude =  0.3607 beta

 Excited state  14: excitation energy (eV) =    3.1551
 Total energy for state 14:                 -3317.94745529 au
    <S**2>     :  8.7782
    Trans. Mom.: -0.0473 X   0.0945 Y  -0.0242 Z
    Strength   :     0.0009088240
    D(  154) --> S(    2) amplitude = -0.2091 beta
    D(  155) --> S(    2) amplitude =  0.5390 beta
    D(  156) --> S(    1) amplitude =  0.5327 beta
    D(  157) --> S(    2) amplitude = -0.4608 beta
    D(  159) --> S(    4) amplitude = -0.2281 beta

 Excited state  15: excitation energy (eV) =    3.1640
 Total energy for state 15:                 -3317.94712803 au
    <S**2>     :  8.7814
    Trans. Mom.:  0.0641 X  -0.1011 Y   0.0338 Z
    Strength   :     0.0011992164
    D(  156) --> S(    1) amplitude =  0.1926 beta
    D(  159) --> S(    4) amplitude =  0.8921 beta
    D(  159) --> S(    5) amplitude =  0.2197 beta

 Excited state  16: excitation energy (eV) =    3.2206
 Total energy for state 16:                 -3317.94504590 au
    <S**2>     :  8.7759
    Trans. Mom.: -0.0200 X  -0.0155 Y  -0.0220 Z
    Strength   :     0.0000887230
    D(  153) --> S(    2) amplitude = -0.2102 beta
    D(  154) --> S(    2) amplitude =  0.2186 beta
    D(  156) --> S(    2) amplitude =  0.9309 beta

 Excited state  17: excitation energy (eV) =    3.2508
 Total energy for state 17:                 -3317.94393621 au
    <S**2>     :  8.7946
    Trans. Mom.: -0.0157 X  -0.3922 Y  -0.0150 Z
    Strength   :     0.0122907484
    D(  153) --> S(    3) amplitude = -0.3381 beta
    D(  154) --> S(    1) amplitude = -0.2331 beta
    D(  154) --> S(    3) amplitude =  0.4079 beta
    D(  155) --> S(    1) amplitude = -0.1502 beta
    D(  155) --> S(    2) amplitude =  0.2508 beta
    D(  156) --> S(    3) amplitude = -0.2168 beta
    D(  157) --> S(    3) amplitude = -0.3593 beta
    D(  158) --> S(    5) amplitude =  0.2680 beta
    D(  159) --> S(    4) amplitude = -0.1546 beta
    D(  159) --> S(    5) amplitude =  0.3999 beta

 Excited state  18: excitation energy (eV) =    3.2786
 Total energy for state 18:                 -3317.94291436 au
    <S**2>     :  8.7816
    Trans. Mom.:  0.0399 X  -0.1517 Y   0.0367 Z
    Strength   :     0.0020845073
    D(  151) --> S(    1) amplitude =  0.2088 beta
    D(  153) --> S(    1) amplitude =  0.7507 beta
    D(  154) --> S(    1) amplitude =  0.5538 beta

 Excited state  19: excitation energy (eV) =    3.2998
 Total energy for state 19:                 -3317.94213643 au
    <S**2>     :  8.8806
    Trans. Mom.: -0.0181 X  -0.0405 Y   0.0747 Z
    Strength   :     0.0006097914
    D(  158) --> S(    4) amplitude =  0.9376 beta

 Excited state  20: excitation energy (eV) =    3.3424
 Total energy for state 20:                 -3317.94057047 au
    <S**2>     :  8.8055
    Trans. Mom.: -0.0095 X   0.1038 Y  -0.0674 Z
    Strength   :     0.0012612203
    D(  152) --> S(    1) amplitude =  0.5177 beta
    D(  153) --> S(    2) amplitude = -0.4388 beta
    D(  154) --> S(    2) amplitude = -0.4075 beta
    D(  159) --> S(    4) amplitude = -0.1544 beta
    D(  159) --> S(    5) amplitude =  0.4543 beta

 Excited state  21: excitation energy (eV) =    3.3469
 Total energy for state 21:                 -3317.94040515 au
    <S**2>     :  8.7821
    Trans. Mom.: -0.0142 X   0.0513 Y  -0.0086 Z
    Strength   :     0.0002384942
    D(  151) --> S(    2) amplitude =  0.1595 beta
    D(  152) --> S(    1) amplitude =  0.6108 beta
    D(  153) --> S(    2) amplitude =  0.5657 beta
    D(  154) --> S(    2) amplitude =  0.4380 beta
    D(  159) --> S(    5) amplitude =  0.1638 beta

 Excited state  22: excitation energy (eV) =    3.3508
 Total energy for state 22:                 -3317.94026223 au
    <S**2>     :  8.8324
    Trans. Mom.:  0.0350 X   0.1946 Y  -0.0856 Z
    Strength   :     0.0038100044
    D(  152) --> S(    1) amplitude = -0.4956 beta
    D(  153) --> S(    2) amplitude =  0.2407 beta
    D(  154) --> S(    1) amplitude =  0.1705 beta
    D(  157) --> S(    3) amplitude =  0.1718 beta
    D(  159) --> S(    5) amplitude =  0.6632 beta

 Excited state  23: excitation energy (eV) =    3.4156
 Total energy for state 23:                 -3317.93788129 au
    <S**2>     :  8.7759
    Trans. Mom.:  0.0371 X   0.0084 Y  -0.0127 Z
    Strength   :     0.0001342401
    D(  152) --> S(    2) amplitude =  0.9327 beta
    D(  155) --> S(    2) amplitude =  0.1717 beta

 Excited state  24: excitation energy (eV) =    3.4202
 Total energy for state 24:                 -3317.93771164 au
    <S**2>     :  8.7807
    Trans. Mom.: -0.0058 X   0.0012 Y   0.0292 Z
    Strength   :     0.0000746402
    D(  151) --> S(    1) amplitude =  0.9476 beta
    D(  153) --> S(    1) amplitude = -0.2119 beta

 Excited state  25: excitation energy (eV) =    3.4625
 Total energy for state 25:                 -3317.93615763 au
    <S**2>     :  8.7871
    Trans. Mom.:  0.0854 X   0.1339 Y  -0.1210 Z
    Strength   :     0.0033807562
    D(  150) --> S(    3) amplitude = -0.1571 beta
    D(  154) --> S(    3) amplitude = -0.2143 beta
    D(  155) --> S(    3) amplitude =  0.6300 beta
    D(  157) --> S(    3) amplitude = -0.5276 beta
    D(  158) --> S(    5) amplitude = -0.4267 beta

 Excited state  26: excitation energy (eV) =    3.4874
 Total energy for state 26:                 -3317.93524381 au
    <S**2>     :  8.7814
    Trans. Mom.: -0.0642 X  -0.0308 Y   0.0186 Z
    Strength   :     0.0004628787
    D(  149) --> S(    1) amplitude = -0.2639 beta
    D(  150) --> S(    1) amplitude =  0.8673 beta
    D(  152) --> S(    1) amplitude = -0.2328 beta
    D(  155) --> S(    1) amplitude =  0.1703 beta

 Excited state  27: excitation energy (eV) =    3.4888
 Total energy for state 27:                 -3317.93519265 au
    <S**2>     :  8.7761
    Trans. Mom.:  0.0422 X   0.0367 Y  -0.0028 Z
    Strength   :     0.0002681997
    D(  151) --> S(    2) amplitude =  0.9513 beta
    D(  153) --> S(    2) amplitude = -0.2162 beta

 Excited state  28: excitation energy (eV) =    3.5179
 Total energy for state 28:                 -3317.93412069 au
    <S**2>     :  8.7973
    Trans. Mom.: -0.1516 X   0.0755 Y   0.1196 Z
    Strength   :     0.0037054875
    D(  155) --> S(    3) amplitude =  0.2742 beta
    D(  156) --> S(    3) amplitude =  0.8004 beta
    D(  158) --> S(    5) amplitude =  0.4829 beta

 Excited state  29: excitation energy (eV) =    3.5420
 Total energy for state 29:                 -3317.93323760 au
    <S**2>     :  8.8176
    Trans. Mom.: -0.2266 X   0.1599 Y   0.1603 Z
    Strength   :     0.0089074001
    D(  150) --> S(    2) amplitude = -0.2536 beta
    D(  153) --> S(    3) amplitude =  0.3139 beta
    D(  154) --> S(    3) amplitude = -0.3173 beta
    D(  155) --> S(    3) amplitude =  0.1628 beta
    D(  156) --> S(    3) amplitude = -0.4730 beta
    D(  158) --> S(    5) amplitude =  0.5818 beta

 Excited state  30: excitation energy (eV) =    3.5609
 Total energy for state 30:                 -3317.93254044 au
    <S**2>     :  8.7802
    Trans. Mom.: -0.0632 X   0.0587 Y   0.0948 Z
    Strength   :     0.0014346443
    D(  149) --> S(    2) amplitude = -0.2524 beta
    D(  150) --> S(    2) amplitude =  0.8472 beta
    D(  152) --> S(    2) amplitude = -0.1985 beta
    D(  158) --> S(    5) amplitude =  0.1910 beta

 Excited state  31: excitation energy (eV) =    3.6357
 Total energy for state 31:                 -3317.92979163 au
    <S**2>     :  8.7809
    Trans. Mom.:  0.0576 X  -0.0192 Y   0.0150 Z
    Strength   :     0.0003487887
    D(  145) --> S(    1) amplitude = -0.2468 beta
    D(  148) --> S(    1) amplitude =  0.5429 beta
    D(  149) --> S(    1) amplitude =  0.7036 beta
    D(  150) --> S(    1) amplitude =  0.3053 beta

 Excited state  32: excitation energy (eV) =    3.6549
 Total energy for state 32:                 -3317.92908879 au
    <S**2>     :  8.7736
    Trans. Mom.: -0.0422 X  -0.0192 Y  -0.0284 Z
    Strength   :     0.0002649043
    D(  151) --> S(    3) amplitude =  0.2299 beta
    D(  153) --> S(    3) amplitude =  0.7275 beta
    D(  154) --> S(    3) amplitude =  0.6198 beta

 Excited state  33: excitation energy (eV) =    3.6911
 Total energy for state 33:                 -3317.92775843 au
    <S**2>     :  8.7816
    Trans. Mom.: -0.0186 X  -0.0290 Y  -0.0327 Z
    Strength   :     0.0002041102
    D(  145) --> S(    1) amplitude =  0.3750 beta
    D(  145) --> S(    2) amplitude =  0.2154 beta
    D(  146) --> S(    1) amplitude = -0.1523 beta
    D(  148) --> S(    1) amplitude = -0.5297 beta
    D(  148) --> S(    2) amplitude = -0.1900 beta
    D(  149) --> S(    1) amplitude =  0.5387 beta
    D(  149) --> S(    2) amplitude = -0.2864 beta

 Excited state  34: excitation energy (eV) =    3.6970
 Total energy for state 34:                 -3317.92753975 au
    <S**2>     :  8.7785
    Trans. Mom.: -0.0209 X  -0.0082 Y  -0.0182 Z
    Strength   :     0.0000754161
    D(  144) --> S(    1) amplitude =  0.1609 beta
    D(  145) --> S(    1) amplitude =  0.2733 beta
    D(  145) --> S(    2) amplitude =  0.2833 beta
    D(  148) --> S(    1) amplitude =  0.4846 beta
    D(  148) --> S(    2) amplitude = -0.4240 beta
    D(  149) --> S(    1) amplitude = -0.2656 beta
    D(  149) --> S(    2) amplitude = -0.4448 beta
    D(  150) --> S(    2) amplitude = -0.2294 beta

 Excited state  35: excitation energy (eV) =    3.7188
 Total energy for state 35:                 -3317.92673806 au
    <S**2>     :  8.7751
    Trans. Mom.: -0.0486 X  -0.0056 Y  -0.0260 Z
    Strength   :     0.0002798531
    D(  145) --> S(    1) amplitude =  0.3530 beta
    D(  148) --> S(    2) amplitude =  0.2137 beta
    D(  149) --> S(    2) amplitude =  0.3590 beta
    D(  152) --> S(    3) amplitude =  0.7490 beta

 Excited state  36: excitation energy (eV) =    3.7237
 Total energy for state 36:                 -3317.92656047 au
    <S**2>     :  8.7807
    Trans. Mom.:  0.1000 X  -0.0549 Y   0.0636 Z
    Strength   :     0.0015558781
    D(  145) --> S(    1) amplitude = -0.5716 beta
    D(  148) --> S(    1) amplitude = -0.1986 beta
    D(  148) --> S(    2) amplitude = -0.2019 beta
    D(  149) --> S(    2) amplitude = -0.3458 beta
    D(  152) --> S(    3) amplitude =  0.5748 beta

 Excited state  37: excitation energy (eV) =    3.7605
 Total energy for state 37:                 -3317.92520516 au
    <S**2>     :  8.7894
    Trans. Mom.: -0.0318 X   0.0216 Y  -0.0355 Z
    Strength   :     0.0002521590
    D(  145) --> S(    2) amplitude = -0.1763 beta
    D(  146) --> S(    2) amplitude =  0.1728 beta
    D(  148) --> S(    2) amplitude =  0.7019 beta
    D(  149) --> S(    2) amplitude = -0.5730 beta

 Excited state  38: excitation energy (eV) =    3.7702
 Total energy for state 38:                 -3317.92484956 au
    <S**2>     : 10.2260
    Trans. Mom.: -0.0349 X  -0.0004 Y   0.1129 Z
    Strength   :     0.0012893890
    S(    3) --> V(    2) amplitude =  0.1688 alpha
    S(    5) --> V(    2) amplitude =  0.4382 alpha
    S(    5) --> V(    3) amplitude = -0.2519 alpha
    S(    5) --> V(    4) amplitude =  0.3367 alpha
    S(    5) --> V(    5) amplitude = -0.1739 alpha
    D(  158) --> V(    2) amplitude = -0.2089 beta
    D(  158) --> V(    3) amplitude =  0.2090 beta
    D(  158) --> V(    4) amplitude = -0.2458 beta
    D(  158) --> V(    6) amplitude =  0.4433 beta

 Excited state  39: excitation energy (eV) =    3.7964
 Total energy for state 39:                 -3317.92388713 au
    <S**2>     :  8.7722
    Trans. Mom.:  0.0002 X  -0.0138 Y   0.0155 Z
    Strength   :     0.0000401141
    D(  151) --> S(    3) amplitude =  0.9536 beta
    D(  153) --> S(    3) amplitude = -0.2335 beta

 Excited state  40: excitation energy (eV) =    3.8064
 Total energy for state 40:                 -3317.92351917 au
    <S**2>     :  8.7965
    Trans. Mom.:  0.1261 X  -0.1054 Y   0.0153 Z
    Strength   :     0.0025416463
    D(  142) --> S(    2) amplitude =  0.2048 beta
    D(  145) --> S(    1) amplitude = -0.3600 beta
    D(  145) --> S(    2) amplitude =  0.8242 beta
    D(  148) --> S(    2) amplitude =  0.2681 beta

 Excited state  41: excitation energy (eV) =    3.8664
 Total energy for state 41:                 -3317.92131589 au
    <S**2>     :  8.7760
    Trans. Mom.:  0.0505 X  -0.0535 Y  -0.0043 Z
    Strength   :     0.0005144923
    D(  149) --> S(    3) amplitude = -0.2552 beta
    D(  150) --> S(    3) amplitude =  0.8735 beta
    D(  152) --> S(    3) amplitude = -0.2210 beta
    D(  155) --> S(    3) amplitude =  0.1735 beta

 Excited state  42: excitation energy (eV) =    3.8801
 Total energy for state 42:                 -3317.92081130 au
    <S**2>     :  8.7814
    Trans. Mom.:  0.0033 X   0.0150 Y   0.0220 Z
    Strength   :     0.0000686770
    D(  147) --> S(    1) amplitude =  0.9771 beta

 Excited state  43: excitation energy (eV) =    3.9474
 Total energy for state 43:                 -3317.91833659 au
    <S**2>     :  8.7789
    Trans. Mom.:  0.0259 X  -0.1445 Y   0.0148 Z
    Strength   :     0.0021051734
    D(  141) --> S(    1) amplitude = -0.1548 beta
    D(  144) --> S(    1) amplitude = -0.5461 beta
    D(  146) --> S(    1) amplitude = -0.3985 beta
    D(  147) --> S(    2) amplitude =  0.5645 beta
    D(  148) --> S(    1) amplitude =  0.1808 beta
    D(  157) --> S(    4) amplitude =  0.2590 beta

 Excited state  44: excitation energy (eV) =    3.9493
 Total energy for state 44:                 -3317.91826941 au
    <S**2>     :  8.7786
    Trans. Mom.: -0.0292 X   0.1271 Y  -0.0384 Z
    Strength   :     0.0017884152
    D(  144) --> S(    1) amplitude =  0.3276 beta
    D(  146) --> S(    1) amplitude =  0.2283 beta
    D(  147) --> S(    2) amplitude =  0.7865 beta
    D(  155) --> S(    4) amplitude = -0.1677 beta
    D(  157) --> S(    4) amplitude = -0.2787 beta

 Excited state  45: excitation energy (eV) =    3.9625
 Total energy for state 45:                 -3317.91778359 au
    <S**2>     :  8.7846
    Trans. Mom.:  0.0397 X  -0.1474 Y   0.0247 Z
    Strength   :     0.0023222596
    D(  143) --> S(    1) amplitude =  0.1538 beta
    D(  144) --> S(    1) amplitude =  0.2085 beta
    D(  144) --> S(    2) amplitude =  0.1921 beta
    D(  146) --> S(    1) amplitude =  0.5268 beta
    D(  154) --> S(    4) amplitude = -0.1733 beta
    D(  155) --> S(    4) amplitude =  0.3126 beta
    D(  157) --> S(    4) amplitude =  0.5469 beta

 Excited state  46: excitation energy (eV) =    3.9900
 Total energy for state 46:                 -3317.91677275 au
    <S**2>     :  9.8790
    Trans. Mom.:  0.0852 X   0.0308 Y  -0.0285 Z
    Strength   :     0.0008824481
    S(    4) --> V(    1) amplitude =  0.1917 alpha
    S(    4) --> V(    4) amplitude = -0.1861 alpha
    S(    4) --> V(    7) amplitude = -0.2919 alpha
    S(    4) --> V(    8) amplitude = -0.3425 alpha
    D(  141) --> S(    1) amplitude =  0.1916 beta
    D(  142) --> S(    1) amplitude = -0.2958 beta
    D(  144) --> S(    1) amplitude =  0.1890 beta
    D(  144) --> S(    2) amplitude =  0.1743 beta
    D(  146) --> S(    1) amplitude = -0.2771 beta
    D(  159) --> V(    8) amplitude =  0.3407 beta
    D(  159) --> V(   11) amplitude =  0.2425 beta

 Excited state  47: excitation energy (eV) =    3.9911
 Total energy for state 47:                 -3317.91673390 au
    <S**2>     :  9.2592
    Trans. Mom.: -0.0765 X   0.0440 Y   0.0702 Z
    Strength   :     0.0012435372
    S(    4) --> V(    7) amplitude = -0.1855 alpha
    S(    4) --> V(    8) amplitude = -0.2187 alpha
    D(  141) --> S(    1) amplitude = -0.3603 beta
    D(  142) --> S(    1) amplitude =  0.4262 beta
    D(  142) --> S(    2) amplitude =  0.1622 beta
    D(  144) --> S(    1) amplitude = -0.3192 beta
    D(  146) --> S(    1) amplitude =  0.4166 beta
    D(  157) --> S(    4) amplitude = -0.1637 beta
    D(  159) --> V(    8) amplitude =  0.2270 beta
    D(  159) --> V(   11) amplitude =  0.1620 beta

 Excited state  48: excitation energy (eV) =    4.0097
 Total energy for state 48:                 -3317.91604728 au
    <S**2>     :  8.7902
    Trans. Mom.: -0.0340 X   0.0026 Y   0.0099 Z
    Strength   :     0.0001242573
    D(  141) --> S(    1) amplitude = -0.1741 beta
    D(  142) --> S(    1) amplitude =  0.1922 beta
    D(  143) --> S(    1) amplitude = -0.1650 beta
    D(  144) --> S(    1) amplitude =  0.2329 beta
    D(  146) --> S(    1) amplitude = -0.2092 beta
    D(  148) --> S(    3) amplitude =  0.5006 beta
    D(  149) --> S(    3) amplitude =  0.6123 beta
    D(  150) --> S(    3) amplitude =  0.2738 beta

 Excited state  49: excitation energy (eV) =    4.0222
 Total energy for state 49:                 -3317.91558825 au
    <S**2>     :  8.7912
    Trans. Mom.: -0.0947 X  -0.0117 Y   0.1191 Z
    Strength   :     0.0022942531
    D(  141) --> S(    1) amplitude = -0.2658 beta
    D(  142) --> S(    1) amplitude =  0.3853 beta
    D(  144) --> S(    1) amplitude =  0.4508 beta
    D(  144) --> S(    2) amplitude = -0.2891 beta
    D(  146) --> S(    1) amplitude = -0.3912 beta
    D(  146) --> S(    2) amplitude = -0.2221 beta
    D(  149) --> S(    3) amplitude = -0.3547 beta

 Excited state  50: excitation energy (eV) =    4.0297
 Total energy for state 50:                 -3317.91531269 au
    <S**2>     :  8.7825
    Trans. Mom.: -0.0181 X  -0.0239 Y  -0.0141 Z
    Strength   :     0.0001080908
    D(  142) --> S(    1) amplitude =  0.3104 beta
    D(  144) --> S(    2) amplitude =  0.4478 beta
    D(  146) --> S(    2) amplitude =  0.6579 beta
    D(  148) --> S(    2) amplitude = -0.1912 beta
    D(  149) --> S(    3) amplitude = -0.2718 beta

 Excited state  51: excitation energy (eV) =    4.0553
 Total energy for state 51:                 -3317.91437334 au
    <S**2>     :  8.8004
    Trans. Mom.: -0.0677 X   0.1089 Y  -0.1081 Z
    Strength   :     0.0027936485
    D(  141) --> S(    2) amplitude = -0.3080 beta
    D(  142) --> S(    1) amplitude = -0.1922 beta
    D(  142) --> S(    2) amplitude =  0.3883 beta
    D(  143) --> S(    1) amplitude =  0.2876 beta
    D(  144) --> S(    2) amplitude = -0.2313 beta
    D(  146) --> S(    2) amplitude =  0.2566 beta
    D(  153) --> S(    4) amplitude = -0.1565 beta
    D(  154) --> S(    4) amplitude =  0.1601 beta
    D(  154) --> S(    5) amplitude = -0.2026 beta
    D(  155) --> S(    4) amplitude =  0.2074 beta
    D(  155) --> S(    5) amplitude =  0.1897 beta
    D(  157) --> S(    4) amplitude =  0.1894 beta
    D(  157) --> S(    5) amplitude =  0.3616 beta

 Excited state  52: excitation energy (eV) =    4.0646
 Total energy for state 52:                 -3317.91403036 au
    <S**2>     :  8.7757
    Trans. Mom.:  0.0195 X  -0.0150 Y  -0.0118 Z
    Strength   :     0.0000740208
    D(  144) --> S(    2) amplitude =  0.3912 beta
    D(  146) --> S(    2) amplitude = -0.4634 beta
    D(  148) --> S(    3) amplitude =  0.5042 beta
    D(  149) --> S(    3) amplitude = -0.4264 beta

 Excited state  53: excitation energy (eV) =    4.0722
 Total energy for state 53:                 -3317.91375308 au
    <S**2>     :  8.7799
    Trans. Mom.:  0.0061 X  -0.0045 Y  -0.0353 Z
    Strength   :     0.0001301393
    D(  142) --> S(    1) amplitude =  0.2969 beta
    D(  143) --> S(    1) amplitude =  0.4589 beta
    D(  144) --> S(    2) amplitude =  0.3059 beta
    D(  146) --> S(    2) amplitude = -0.3255 beta
    D(  148) --> S(    3) amplitude = -0.3316 beta
    D(  149) --> S(    3) amplitude =  0.2624 beta
    D(  153) --> S(    4) amplitude = -0.2260 beta
    D(  154) --> S(    4) amplitude =  0.2793 beta

 Excited state  54: excitation energy (eV) =    4.0862
 Total energy for state 54:                 -3317.91323855 au
    <S**2>     :  8.7818
    Trans. Mom.:  0.0652 X   0.1092 Y  -0.1057 Z
    Strength   :     0.0027380018
    D(  141) --> S(    1) amplitude =  0.2013 beta
    D(  142) --> S(    1) amplitude =  0.1915 beta
    D(  142) --> S(    2) amplitude = -0.2053 beta
    D(  143) --> S(    1) amplitude =  0.6547 beta
    D(  144) --> S(    2) amplitude = -0.2248 beta
    D(  146) --> S(    2) amplitude =  0.1922 beta
    D(  148) --> S(    3) amplitude =  0.4567 beta
    D(  157) --> S(    5) amplitude = -0.1528 beta

 Excited state  55: excitation energy (eV) =    4.1199
 Total energy for state 55:                 -3317.91200031 au
    <S**2>     :  8.7753
    Trans. Mom.: -0.0333 X  -0.0004 Y  -0.0562 Z
    Strength   :     0.0004310542
    D(  139) --> S(    2) amplitude = -0.1589 beta
    D(  141) --> S(    1) amplitude =  0.1775 beta
    D(  141) --> S(    2) amplitude =  0.2011 beta
    D(  142) --> S(    2) amplitude =  0.3889 beta
    D(  143) --> S(    2) amplitude =  0.6678 beta
    D(  145) --> S(    3) amplitude =  0.3809 beta
    D(  148) --> S(    3) amplitude =  0.1639 beta

 Excited state  56: excitation energy (eV) =    4.1252
 Total energy for state 56:                 -3317.91180292 au
    <S**2>     :  8.7947
    Trans. Mom.: -0.0079 X   0.1199 Y  -0.1696 Z
    Strength   :     0.0043672429
    D(  141) --> S(    2) amplitude = -0.1845 beta
    D(  142) --> S(    2) amplitude =  0.6627 beta
    D(  143) --> S(    1) amplitude =  0.1548 beta
    D(  143) --> S(    2) amplitude = -0.2433 beta
    D(  144) --> S(    2) amplitude =  0.2053 beta
    D(  145) --> S(    3) amplitude = -0.2382 beta
    D(  153) --> S(    4) amplitude =  0.1527 beta
    D(  153) --> S(    5) amplitude = -0.1665 beta
    D(  154) --> S(    4) amplitude = -0.1717 beta
    D(  154) --> S(    5) amplitude =  0.2296 beta
    D(  157) --> S(    5) amplitude = -0.2535 beta

 Excited state  57: excitation energy (eV) =    4.1500
 Total energy for state 57:                 -3317.91089459 au
    <S**2>     :  8.7800
    Trans. Mom.:  0.0296 X  -0.2862 Y   0.1326 Z
    Strength   :     0.0102035211
    D(  143) --> S(    2) amplitude = -0.5342 beta
    D(  145) --> S(    3) amplitude =  0.6926 beta
    D(  148) --> S(    3) amplitude =  0.1629 beta

 Excited state  58: excitation energy (eV) =    4.1756
 Total energy for state 58:                 -3317.90995046 au
    <S**2>     :  8.7950
    Trans. Mom.: -0.0551 X   0.1823 Y   0.0747 Z
    Strength   :     0.0042807594
    D(  141) --> S(    1) amplitude =  0.4841 beta
    D(  141) --> S(    2) amplitude =  0.3288 beta
    D(  142) --> S(    1) amplitude =  0.2190 beta
    D(  143) --> S(    1) amplitude = -0.1763 beta
    D(  143) --> S(    2) amplitude = -0.2396 beta
    D(  153) --> S(    4) amplitude =  0.2179 beta
    D(  154) --> S(    4) amplitude = -0.2708 beta
    D(  154) --> S(    5) amplitude = -0.2040 beta
    D(  156) --> S(    4) amplitude =  0.1515 beta
    D(  157) --> S(    5) amplitude =  0.3542 beta

 Excited state  59: excitation energy (eV) =    4.2139
 Total energy for state 59:                 -3317.90854454 au
    <S**2>     :  8.7841
    Trans. Mom.: -0.1261 X  -0.1607 Y   0.2590 Z
    Strength   :     0.0112326221
    D(  140) --> S(    1) amplitude =  0.1528 beta
    D(  141) --> S(    1) amplitude =  0.5151 beta
    D(  141) --> S(    2) amplitude = -0.4638 beta
    D(  142) --> S(    1) amplitude =  0.3150 beta
    D(  143) --> S(    1) amplitude = -0.2829 beta
    D(  144) --> S(    2) amplitude = -0.2100 beta
    D(  153) --> S(    4) amplitude = -0.1834 beta
    D(  154) --> S(    4) amplitude =  0.2041 beta
    D(  154) --> S(    5) amplitude =  0.1745 beta
    D(  156) --> S(    4) amplitude = -0.1555 beta

 Excited state  60: excitation energy (eV) =    4.2522
 Total energy for state 60:                 -3317.90713579 au
    <S**2>     :  8.7897
    Trans. Mom.: -0.0613 X  -0.1406 Y   0.1557 Z
    Strength   :     0.0049779820
    D(  141) --> S(    2) amplitude =  0.5524 beta
    D(  143) --> S(    2) amplitude = -0.2754 beta
    D(  144) --> S(    2) amplitude = -0.2234 beta
    D(  147) --> S(    3) amplitude = -0.2025 beta
    D(  153) --> S(    4) amplitude = -0.2238 beta
    D(  153) --> S(    5) amplitude = -0.2547 beta
    D(  154) --> S(    4) amplitude =  0.2518 beta
    D(  154) --> S(    5) amplitude =  0.2896 beta
    D(  155) --> S(    4) amplitude =  0.1861 beta
    D(  155) --> S(    5) amplitude =  0.1976 beta
    D(  156) --> S(    4) amplitude = -0.1995 beta
    D(  156) --> S(    5) amplitude = -0.1613 beta

 Excited state  61: excitation energy (eV) =    4.2577
 Total energy for state 61:                 -3317.90693426 au
    <S**2>     :  8.7725
    Trans. Mom.:  0.0110 X  -0.0521 Y   0.0274 Z
    Strength   :     0.0003737431
    D(  141) --> S(    2) amplitude =  0.1741 beta
    D(  145) --> S(    3) amplitude = -0.1808 beta
    D(  147) --> S(    3) amplitude =  0.9386 beta

 Excited state  62: excitation energy (eV) =    4.3268
 Total energy for state 62:                 -3317.90439479 au
    <S**2>     :  8.7818
    Trans. Mom.:  0.0648 X  -0.3131 Y   0.0159 Z
    Strength   :     0.0108648323
    D(  142) --> S(    3) amplitude =  0.3196 beta
    D(  143) --> S(    3) amplitude =  0.1527 beta
    D(  144) --> S(    3) amplitude =  0.3292 beta
    D(  145) --> S(    3) amplitude = -0.2811 beta
    D(  146) --> S(    3) amplitude =  0.5073 beta
    D(  148) --> S(    3) amplitude = -0.1769 beta
    D(  153) --> S(    5) amplitude =  0.2140 beta
    D(  154) --> S(    5) amplitude = -0.2397 beta
    D(  155) --> S(    5) amplitude = -0.2432 beta
    D(  156) --> S(    5) amplitude =  0.1707 beta
    D(  157) --> S(    5) amplitude = -0.2448 beta

 Excited state  63: excitation energy (eV) =    4.3488
 Total energy for state 63:                 -3317.90358867 au
    <S**2>     :  8.7803
    Trans. Mom.:  0.0746 X   0.3128 Y  -0.1306 Z
    Strength   :     0.0128345506
    D(  142) --> S(    3) amplitude = -0.2881 beta
    D(  144) --> S(    3) amplitude =  0.3044 beta
    D(  145) --> S(    3) amplitude =  0.1785 beta
    D(  146) --> S(    3) amplitude =  0.6687 beta
    D(  153) --> S(    5) amplitude = -0.2130 beta
    D(  154) --> S(    5) amplitude =  0.2476 beta
    D(  155) --> S(    5) amplitude =  0.1832 beta
    D(  156) --> S(    5) amplitude = -0.1633 beta

 Excited state  64: excitation energy (eV) =    4.3696
 Total energy for state 64:                 -3317.90282093 au
    <S**2>     :  9.3053
    Trans. Mom.: -0.0812 X  -0.1059 Y   0.0356 Z
    Strength   :     0.0020413975
    S(    5) --> V(    1) amplitude =  0.9380 alpha
    S(    5) --> V(    2) amplitude =  0.1648 alpha

 Excited state  65: excitation energy (eV) =    4.3757
 Total energy for state 65:                 -3317.90259751 au
    <S**2>     :  8.8051
    Trans. Mom.:  0.1580 X   0.0313 Y  -0.1922 Z
    Strength   :     0.0067420033
    S(    5) --> V(    1) amplitude =  0.2153 alpha
    D(  139) --> S(    1) amplitude = -0.2179 beta
    D(  140) --> S(    1) amplitude =  0.3933 beta
    D(  141) --> S(    3) amplitude =  0.2446 beta
    D(  142) --> S(    3) amplitude = -0.2314 beta
    D(  144) --> S(    3) amplitude =  0.5196 beta
    D(  146) --> S(    3) amplitude = -0.4231 beta
    D(  155) --> S(    4) amplitude =  0.1795 beta
    D(  157) --> S(    4) amplitude = -0.1766 beta

 Excited state  66: excitation energy (eV) =    4.3885
 Total energy for state 66:                 -3317.90212660 au
    <S**2>     :  8.7896
    Trans. Mom.: -0.0617 X  -0.1245 Y   0.0936 Z
    Strength   :     0.0030180070
    D(  142) --> S(    3) amplitude =  0.1901 beta
    D(  144) --> S(    3) amplitude = -0.2613 beta
    D(  150) --> S(    4) amplitude = -0.1551 beta
    D(  154) --> S(    4) amplitude = -0.2387 beta
    D(  155) --> S(    4) amplitude =  0.6592 beta
    D(  157) --> S(    4) amplitude = -0.5202 beta

 Excited state  67: excitation energy (eV) =    4.4083
 Total energy for state 67:                 -3317.90139865 au
    <S**2>     :  8.7804
    Trans. Mom.:  0.0175 X   0.0593 Y   0.0945 Z
    Strength   :     0.0013770519
    D(  139) --> S(    1) amplitude =  0.3272 beta
    D(  140) --> S(    1) amplitude = -0.4942 beta
    D(  140) --> S(    2) amplitude =  0.1548 beta
    D(  141) --> S(    3) amplitude = -0.1913 beta
    D(  142) --> S(    3) amplitude =  0.1748 beta
    D(  143) --> S(    3) amplitude = -0.2623 beta
    D(  144) --> S(    3) amplitude =  0.5307 beta
    D(  146) --> S(    3) amplitude = -0.2075 beta
    D(  155) --> S(    4) amplitude =  0.1983 beta

 Excited state  68: excitation energy (eV) =    4.4189
 Total energy for state 68:                 -3317.90101015 au
    <S**2>     :  9.3176
    Trans. Mom.: -0.0586 X  -0.0728 Y   0.0903 Z
    Strength   :     0.0018291989
    S(    5) --> V(    1) amplitude = -0.1806 alpha
    S(    5) --> V(    2) amplitude =  0.6701 alpha
    S(    5) --> V(    3) amplitude =  0.5615 alpha
    S(    5) --> V(    4) amplitude = -0.2068 alpha

 Excited state  69: excitation energy (eV) =    4.4445
 Total energy for state 69:                 -3317.90006890 au
    <S**2>     :  8.7957
    Trans. Mom.: -0.0897 X   0.0416 Y  -0.0763 Z
    Strength   :     0.0016987122
    D(  139) --> S(    1) amplitude = -0.3013 beta
    D(  139) --> S(    2) amplitude =  0.3467 beta
    D(  140) --> S(    2) amplitude = -0.4496 beta
    D(  141) --> S(    3) amplitude = -0.2123 beta
    D(  142) --> S(    3) amplitude =  0.2540 beta
    D(  143) --> S(    3) amplitude = -0.3506 beta
    D(  156) --> S(    4) amplitude =  0.4123 beta
    D(  157) --> S(    5) amplitude =  0.1825 beta

 Excited state  70: excitation energy (eV) =    4.4509
 Total energy for state 70:                 -3317.89983471 au
    <S**2>     :  8.7940
    Trans. Mom.:  0.0216 X  -0.1033 Y   0.0972 Z
    Strength   :     0.0022431968
    D(  139) --> S(    2) amplitude = -0.1925 beta
    D(  140) --> S(    2) amplitude =  0.2459 beta
    D(  143) --> S(    3) amplitude =  0.2904 beta
    D(  153) --> S(    4) amplitude = -0.2009 beta
    D(  154) --> S(    4) amplitude =  0.2040 beta
    D(  155) --> S(    4) amplitude =  0.1604 beta
    D(  156) --> S(    4) amplitude =  0.8066 beta

 Excited state  71: excitation energy (eV) =    4.4848
 Total energy for state 71:                 -3317.89858815 au
    <S**2>     :  8.7787
    Trans. Mom.:  0.1667 X   0.1523 Y  -0.2817 Z
    Strength   :     0.0143225538
    D(  139) --> S(    1) amplitude =  0.2257 beta
    D(  139) --> S(    2) amplitude =  0.3454 beta
    D(  140) --> S(    1) amplitude = -0.3263 beta
    D(  140) --> S(    2) amplitude = -0.3557 beta
    D(  143) --> S(    3) amplitude =  0.6876 beta
    D(  144) --> S(    3) amplitude =  0.1664 beta

 Excited state  72: excitation energy (eV) =    4.5142
 Total energy for state 72:                 -3317.89750962 au
    <S**2>     :  8.8065
    Trans. Mom.: -0.1308 X   0.1575 Y   0.0256 Z
    Strength   :     0.0047067639
    D(  139) --> S(    1) amplitude = -0.4960 beta
    D(  139) --> S(    2) amplitude = -0.1506 beta
    D(  140) --> S(    2) amplitude =  0.3340 beta
    D(  142) --> S(    3) amplitude =  0.2914 beta
    D(  143) --> S(    3) amplitude =  0.3236 beta
    D(  154) --> S(    5) amplitude =  0.1765 beta
    D(  155) --> S(    5) amplitude = -0.2032 beta
    D(  157) --> S(    5) amplitude =  0.4038 beta

 Excited state  73: excitation energy (eV) =    4.5433
 Total energy for state 73:                 -3317.89643989 au
    <S**2>     :  8.8196
    Trans. Mom.: -0.0261 X   0.1036 Y  -0.0776 Z
    Strength   :     0.0019404921
    D(  139) --> S(    1) amplitude = -0.4624 beta
    D(  140) --> S(    1) amplitude = -0.3746 beta
    D(  154) --> S(    5) amplitude = -0.1566 beta
    D(  155) --> S(    5) amplitude =  0.5785 beta
    D(  157) --> S(    5) amplitude = -0.4259 beta

 Excited state  74: excitation energy (eV) =    4.5520
 Total energy for state 74:                 -3317.89612012 au
    <S**2>     :  9.2865
    Trans. Mom.:  0.1478 X   0.1359 Y  -0.0247 Z
    Strength   :     0.0045639113
    S(    4) --> V(    1) amplitude =  0.6669 alpha
    S(    4) --> V(    2) amplitude =  0.5103 alpha
    S(    4) --> V(    3) amplitude = -0.2168 alpha
    S(    4) --> V(    4) amplitude =  0.1592 alpha
    S(    5) --> V(    2) amplitude =  0.1518 alpha
    S(    5) --> V(    3) amplitude = -0.2550 alpha
    D(  159) --> V(    1) amplitude =  0.1726 beta

 Excited state  75: excitation energy (eV) =    4.5644
 Total energy for state 75:                 -3317.89566280 au
    <S**2>     :  9.2497
    Trans. Mom.:  0.0617 X  -0.1456 Y  -0.0822 Z
    Strength   :     0.0035521820
    S(    4) --> V(    1) amplitude =  0.3034 alpha
    S(    5) --> V(    2) amplitude = -0.2795 alpha
    S(    5) --> V(    3) amplitude =  0.5819 alpha
    S(    5) --> V(    4) amplitude =  0.5332 alpha
    S(    5) --> V(    7) amplitude =  0.1914 alpha
    S(    5) --> V(    8) amplitude =  0.1826 alpha
    D(  155) --> S(    5) amplitude = -0.1643 beta

 Excited state  76: excitation energy (eV) =    4.5721
 Total energy for state 76:                 -3317.89537977 au
    <S**2>     :  9.7550
    Trans. Mom.:  0.1182 X   0.0890 Y  -0.0647 Z
    Strength   :     0.0029188706
    S(    4) --> V(    2) amplitude = -0.2489 alpha
    D(  159) --> V(    1) amplitude =  0.8649 beta
    D(  159) --> V(    2) amplitude =  0.1682 beta
    D(  159) --> V(    3) amplitude = -0.1726 beta

 Excited state  77: excitation energy (eV) =    4.5736
 Total energy for state 77:                 -3317.89532584 au
    <S**2>     :  8.7948
    Trans. Mom.:  0.2186 X  -0.0171 Y  -0.0708 Z
    Strength   :     0.0059473410
    D(  141) --> S(    3) amplitude =  0.6411 beta
    D(  142) --> S(    3) amplitude =  0.4205 beta
    D(  143) --> S(    3) amplitude = -0.1628 beta
    D(  153) --> S(    4) amplitude = -0.3080 beta
    D(  154) --> S(    4) amplitude = -0.2549 beta
    D(  156) --> S(    5) amplitude = -0.2195 beta

 Excited state  78: excitation energy (eV) =    4.5784
 Total energy for state 78:                 -3317.89515102 au
    <S**2>     :  8.8352
    Trans. Mom.:  0.0488 X  -0.0226 Y   0.0091 Z
    Strength   :     0.0003333979
    D(  141) --> S(    3) amplitude =  0.3192 beta
    D(  142) --> S(    3) amplitude =  0.2074 beta
    D(  151) --> S(    4) amplitude =  0.1944 beta
    D(  153) --> S(    4) amplitude =  0.6628 beta
    D(  154) --> S(    4) amplitude =  0.5341 beta

 Excited state  79: excitation energy (eV) =    4.5859
 Total energy for state 79:                 -3317.89487450 au
    <S**2>     :  9.8235
    Trans. Mom.:  0.0042 X  -0.0881 Y  -0.0765 Z
    Strength   :     0.0015314440
    S(    4) --> V(    1) amplitude =  0.3600 alpha
    S(    4) --> V(    2) amplitude = -0.3942 alpha
    S(    4) --> V(    4) amplitude = -0.1576 alpha
    D(  158) --> V(    1) amplitude =  0.7180 beta
    D(  159) --> V(    1) amplitude = -0.2258 beta

 Excited state  80: excitation energy (eV) =    4.5895
 Total energy for state 80:                 -3317.89474041 au
    <S**2>     :  9.6558
    Trans. Mom.:  0.0011 X  -0.1523 Y   0.0057 Z
    Strength   :     0.0026102642
    S(    4) --> V(    1) amplitude = -0.4357 alpha
    S(    4) --> V(    2) amplitude =  0.4131 alpha
    S(    4) --> V(    4) amplitude =  0.1514 alpha
    D(  158) --> V(    1) amplitude =  0.6405 beta

 Excited state  81: excitation energy (eV) =    4.6063
 Total energy for state 81:                 -3317.89412299 au
    <S**2>     :  8.8452
    Trans. Mom.:  0.1108 X  -0.0543 Y  -0.0793 Z
    Strength   :     0.0024282444
    S(    5) --> V(    4) amplitude = -0.1677 alpha
    D(  139) --> S(    1) amplitude = -0.1601 beta
    D(  140) --> S(    1) amplitude = -0.2191 beta
    D(  141) --> S(    3) amplitude =  0.1924 beta
    D(  153) --> S(    5) amplitude = -0.2197 beta
    D(  154) --> S(    5) amplitude =  0.2109 beta
    D(  156) --> S(    5) amplitude =  0.7923 beta

 Excited state  82: excitation energy (eV) =    4.6158
 Total energy for state 82:                 -3317.89377674 au
    <S**2>     :  8.8678
    Trans. Mom.: -0.2221 X   0.0867 Y   0.1070 Z
    Strength   :     0.0077244454
    S(    4) --> V(    2) amplitude =  0.1980 alpha
    S(    5) --> V(    4) amplitude =  0.1956 alpha
    D(  139) --> S(    1) amplitude =  0.2451 beta
    D(  139) --> S(    2) amplitude =  0.3710 beta
    D(  140) --> S(    1) amplitude =  0.3253 beta
    D(  140) --> S(    2) amplitude =  0.3532 beta
    D(  141) --> S(    3) amplitude = -0.1944 beta
    D(  142) --> S(    3) amplitude =  0.1795 beta
    D(  152) --> S(    4) amplitude = -0.2614 beta
    D(  155) --> S(    5) amplitude =  0.3347 beta
    D(  156) --> S(    5) amplitude =  0.3058 beta

 Excited state  83: excitation energy (eV) =    4.6264
 Total energy for state 83:                 -3317.89338673 au
    <S**2>     :  8.8536
    Trans. Mom.:  0.0155 X  -0.1855 Y  -0.1047 Z
    Strength   :     0.0051705302
    D(  139) --> S(    2) amplitude =  0.5494 beta
    D(  140) --> S(    2) amplitude =  0.4207 beta
    D(  141) --> S(    3) amplitude = -0.1562 beta
    D(  142) --> S(    3) amplitude = -0.1596 beta
    D(  152) --> S(    4) amplitude =  0.3359 beta
    D(  155) --> S(    5) amplitude = -0.2379 beta
    D(  156) --> S(    5) amplitude = -0.2813 beta

 Excited state  84: excitation energy (eV) =    4.6536
 Total energy for state 84:                 -3317.89238740 au
    <S**2>     :  9.6285
    Trans. Mom.: -0.0815 X   0.1211 Y   0.0782 Z
    Strength   :     0.0031265634
    D(  152) --> S(    4) amplitude =  0.3862 beta
    D(  158) --> V(    2) amplitude = -0.2398 beta
    D(  159) --> V(    2) amplitude =  0.7667 beta

 Excited state  85: excitation energy (eV) =    4.6572
 Total energy for state 85:                 -3317.89225447 au
    <S**2>     :  9.0807
    Trans. Mom.:  0.0220 X   0.1335 Y  -0.0431 Z
    Strength   :     0.0023005534
    S(    5) --> V(    4) amplitude =  0.2695 alpha
    S(    5) --> V(    5) amplitude =  0.2143 alpha
    D(  152) --> S(    4) amplitude =  0.6777 beta
    D(  155) --> S(    5) amplitude =  0.1510 beta
    D(  158) --> V(    2) amplitude =  0.2533 beta
    D(  159) --> V(    2) amplitude = -0.3156 beta

 Excited state  86: excitation energy (eV) =    4.6668
 Total energy for state 86:                 -3317.89190181 au
    <S**2>     :  9.1859
    Trans. Mom.: -0.0797 X   0.1599 Y  -0.0285 Z
    Strength   :     0.0037408538
    S(    4) --> V(    2) amplitude =  0.1654 alpha
    S(    5) --> V(    2) amplitude = -0.1827 alpha
    S(    5) --> V(    3) amplitude =  0.1820 alpha
    S(    5) --> V(    4) amplitude = -0.2618 alpha
    S(    5) --> V(    5) amplitude = -0.3024 alpha
    S(    5) --> V(    6) amplitude =  0.5772 alpha
    S(    5) --> V(    8) amplitude = -0.1610 alpha
    D(  139) --> S(    2) amplitude = -0.2347 beta
    D(  152) --> S(    4) amplitude =  0.3171 beta
    D(  155) --> S(    5) amplitude =  0.1678 beta

 Excited state  87: excitation energy (eV) =    4.6812
 Total energy for state 87:                 -3317.89137075 au
    <S**2>     :  9.3444
    Trans. Mom.:  0.1027 X  -0.0549 Y  -0.0055 Z
    Strength   :     0.0015593951
    S(    5) --> V(    3) amplitude = -0.2068 alpha
    S(    5) --> V(    5) amplitude =  0.5890 alpha
    S(    5) --> V(    6) amplitude =  0.6618 alpha
    S(    5) --> V(    7) amplitude =  0.1625 alpha

 Excited state  88: excitation energy (eV) =    4.6936
 Total energy for state 88:                 -3317.89091412 au
    <S**2>     :  9.8424
[...]
  1.8108   1.8131   1.8194   1.8235   1.8250   1.8311   1.8361   1.8385
  1.8432   1.8467   1.8520   1.8552   1.8589   1.8639   1.8720   1.8739
  1.8787   1.8834   1.8846   1.8917   1.8976   1.9033   1.9100   1.9110
  1.9136   1.9179   1.9188   1.9205   1.9239   1.9273   1.9309   1.9326
  1.9379   1.9425   1.9498   1.9526   1.9546   1.9610   1.9624   1.9662
  1.9664   1.9784   1.9840   1.9869   1.9908   1.9924   1.9958   2.0003
  2.0025   2.0065   2.0072   2.0131   2.0178   2.0202   2.0239   2.0283
  2.0318   2.0343   2.0362   2.0432   2.0455   2.0477   2.0541   2.0575
  2.0616   2.0634   2.0667   2.0693   2.0713   2.0748   2.0788   2.0828
  2.0844   2.0887   2.0938   2.0975   2.1024   2.1056   2.1100   2.1144
  2.1208   2.1259   2.1308   2.1341   2.1375   2.1442   2.1503   2.1528
  2.1583   2.1618   2.1690   2.1707   2.1739   2.1786   2.1823   2.1887
  2.1967   2.2024   2.2045   2.2081   2.2126   2.2152   2.2181   2.2235
  2.2254   2.2394   2.2450   2.2490   2.2533   2.2584   2.2626   2.2668
  2.2711   2.2756   2.2799   2.2813   2.2845   2.2877   2.2929   2.2987
  2.3037   2.3068   2.3078   2.3135   2.3221   2.3270   2.3322   2.3354
  2.3376   2.3492   2.3525   2.3566   2.3665   2.3755   2.3778   2.3800
  2.3825   2.3911   2.3963   2.3999   2.4107   2.4129   2.4170   2.4238
  2.4261   2.4300   2.4333   2.4364   2.4422   2.4477   2.4534   2.4579
  2.4638   2.4681   2.4732   2.4738   2.4796   2.4852   2.4874   2.4967
  2.5002   2.5044   2.5099   2.5131   2.5261   2.5309   2.5333   2.5406
  2.5528   2.5548   2.5562   2.5607   2.5664   2.5695   2.5746   2.5853
  2.5905   2.5973   2.6016   2.6075   2.6216   2.6243   2.6246   2.6407
  2.6448   2.6466   2.6559   2.6633   2.6691   2.6722   2.6818   2.6877
  2.6986   2.7022   2.7070   2.7086   2.7267   2.7299   2.7333   2.7370
  2.7471   2.7486   2.7578   2.7651   2.7686   2.7770   2.7802   2.8025
  2.8046   2.8114   2.8182   2.8217   2.8249   2.8329   2.8340   2.8446
  2.8451   2.8566   2.8673   2.8776   2.8830   2.8889   2.8977   2.9029
  2.9069   2.9109   2.9243   2.9433   2.9489   2.9609   2.9677   2.9707
  2.9934   3.0022   3.0090   3.0206   3.0332   3.0451   3.0534   3.0673
  3.0720   3.0763   3.0937   3.0989   3.1136   3.1172   3.1464   3.1513
  3.1815   3.1923   3.2318   3.2477   3.2626   3.2938   3.3023   3.3195
  3.3262   3.3454   3.3532   3.3943   3.4261   3.4326   3.4405   3.4497
  3.4507   3.4619   3.4646   3.4708   3.4759   3.4819   3.4871   3.4949
  3.4995   3.5013   3.5093   3.5194   3.5210   3.5271   3.5291   3.5425
  3.5464   3.5490   3.5503   3.5560   3.5601   3.5651   3.5694   3.5724
  3.5763   3.5834   3.5887   3.5913   3.6042   3.6112   3.6167   3.6212
  3.6357   3.6426   3.6582   3.6723   3.6824   3.6879   3.6952   3.7010
  3.7118   3.7185   3.7279   3.7291   3.7375   3.7426   3.7675   3.7730
  3.7923   3.7953   3.8028   3.8143   3.8210   3.8266   3.8399   3.8573
  3.8718   3.8837   3.8937   3.9137   3.9203   3.9356   3.9479   3.9793
  3.9866   4.0001   4.0068   4.0184   4.0249   4.0526   4.0545   4.0891
  4.0999   4.1155   4.1338   4.1780   4.1888   4.2062   4.2350   4.3280
  4.3513   4.4444   4.4849   4.5655   4.6053   4.7198
 
 Beta MOs
 -- Occupied --
******** -29.8789 -25.7221 -25.7202 -25.7194 -19.0508 -19.0477 -19.0473
-19.0445 -19.0405 -19.0302 -19.0272 -19.0242 -19.0148 -19.0132 -19.0109
-19.0108 -19.0086 -14.3327 -14.3322 -14.2675 -14.2631 -10.2124 -10.2099
-10.2099 -10.2092 -10.2022 -10.1991 -10.1972 -10.1680 -10.1537 -10.1525
-10.1455 -10.1421 -10.1255 -10.1250 -10.1183 -10.1146 -10.1113 -10.1107
-10.1080 -10.1073 -10.1020 -10.0995  -3.3424  -2.1109  -2.1071  -2.1061
 -1.0470  -1.0429  -1.0184  -1.0037  -0.9999  -0.9967  -0.9914  -0.9764
 -0.9731  -0.9364  -0.9173  -0.9160  -0.9134  -0.8870  -0.8804  -0.8226
 -0.8189  -0.7706  -0.7677  -0.7463  -0.7322  -0.7228  -0.7051  -0.6982
 -0.6867  -0.6654  -0.6554  -0.6171  -0.6075  -0.5865  -0.5661  -0.5641
 -0.5350  -0.5331  -0.5177  -0.5126  -0.5063  -0.4996  -0.4862  -0.4788
 -0.4741  -0.4687  -0.4637  -0.4598  -0.4550  -0.4486  -0.4478  -0.4455
 -0.4418  -0.4370  -0.4326  -0.4287  -0.4236  -0.4174  -0.4113  -0.4091
 -0.4064  -0.3993  -0.3976  -0.3935  -0.3888  -0.3862  -0.3837  -0.3819
 -0.3808  -0.3788  -0.3781  -0.3738  -0.3718  -0.3662  -0.3654  -0.3646
 -0.3585  -0.3554  -0.3498  -0.3474  -0.3457  -0.3413  -0.3352  -0.3342
 -0.3275  -0.3230  -0.3190  -0.3103  -0.3081  -0.3035  -0.3012  -0.3006
 -0.2939  -0.2891  -0.2783  -0.2772  -0.2688  -0.2617  -0.2587  -0.2564
 -0.2504  -0.2418  -0.2390  -0.2345  -0.2309  -0.2273  -0.2238  -0.2189
 -0.2177  -0.2174  -0.2116  -0.2104  -0.2063  -0.1848  -0.1835
 -- Virtual --
 -0.0874  -0.0848  -0.0734  -0.0397  -0.0339  -0.0055  -0.0019  -0.0000
  0.0040   0.0052   0.0065   0.0096   0.0125   0.0153   0.0166   0.0175
  0.0210   0.0239   0.0275   0.0288   0.0310   0.0338   0.0355   0.0372
  0.0393   0.0420   0.0446   0.0460   0.0487   0.0495   0.0506   0.0515
  0.0560   0.0579   0.0603   0.0615   0.0655   0.0665   0.0686   0.0715
  0.0731   0.0750   0.0763   0.0766   0.0796   0.0817   0.0844   0.0860
  0.0877   0.0898   0.0908   0.0924   0.0946   0.0993   0.0999   0.1006
  0.1022   0.1035   0.1054   0.1075   0.1079   0.1103   0.1124   0.1128
  0.1153   0.1163   0.1175   0.1181   0.1190   0.1209   0.1227   0.1242
  0.1251   0.1273   0.1296   0.1307   0.1320   0.1328   0.1350   0.1360
  0.1387   0.1405   0.1417   0.1425   0.1442   0.1463   0.1484   0.1496
  0.1510   0.1533   0.1543   0.1579   0.1584   0.1588   0.1603   0.1626
  0.1632   0.1654   0.1669   0.1678   0.1689   0.1711   0.1738   0.1750
  0.1768   0.1773   0.1785   0.1803   0.1834   0.1843   0.1862   0.1875
  0.1891   0.1893   0.1931   0.1945   0.1955   0.1977   0.1988   0.2010
  0.2021   0.2034   0.2045   0.2067   0.2084   0.2105   0.2122   0.2131
  0.2143   0.2160   0.2174   0.2188   0.2207   0.2210   0.2240   0.2251
  0.2272   0.2309   0.2320   0.2328   0.2350   0.2354   0.2377   0.2383
  0.2396   0.2408   0.2432   0.2449   0.2455   0.2479   0.2498   0.2523
  0.2534   0.2558   0.2570   0.2572   0.2587   0.2607   0.2625   0.2642
  0.2649   0.2681   0.2698   0.2710   0.2733   0.2740   0.2753   0.2762
  0.2774   0.2793   0.2805   0.2822   0.2845   0.2871   0.2889   0.2899
  0.2906   0.2926   0.2930   0.2934   0.2964   0.2972   0.2993   0.2996
  0.3016   0.3017   0.3037   0.3055   0.3084   0.3118   0.3126   0.3131
  0.3146   0.3157   0.3176   0.3193   0.3214   0.3230   0.3241   0.3245
  0.3266   0.3284   0.3296   0.3333   0.3339   0.3355   0.3374   0.3405
  0.3407   0.3424   0.3450   0.3465   0.3492   0.3513   0.3519   0.3529
  0.3546   0.3572   0.3579   0.3601   0.3614   0.3640   0.3663   0.3702
  0.3724   0.3734   0.3751   0.3753   0.3776   0.3798   0.3812   0.3845
  0.3852   0.3866   0.3889   0.3910   0.3916   0.3949   0.3951   0.3956
  0.3966   0.4014   0.4055   0.4067   0.4083   0.4092   0.4134   0.4137
  0.4150   0.4186   0.4206   0.4217   0.4244   0.4251   0.4277   0.4295
  0.4308   0.4334   0.4351   0.4366   0.4409   0.4425   0.4442   0.4460
  0.4467   0.4494   0.4524   0.4536   0.4558   0.4575   0.4612   0.4629
  0.4646   0.4661   0.4686   0.4720   0.4734   0.4748   0.4775   0.4808
  0.4818   0.4843   0.4848   0.4869   0.4891   0.4920   0.4945   0.4954
  0.4978   0.4992   0.4998   0.5032   0.5045   0.5059   0.5087   0.5114
  0.5123   0.5143   0.5170   0.5180   0.5194   0.5221   0.5231   0.5272
  0.5297   0.5313   0.5324   0.5376   0.5386   0.5415   0.5436   0.5447
  0.5481   0.5494   0.5508   0.5521   0.5550   0.5554   0.5603   0.5636
  0.5642   0.5653   0.5671   0.5683   0.5717   0.5725   0.5740   0.5750
  0.5800   0.5808   0.5852   0.5878   0.5895   0.5919   0.5933   0.5942
  0.5969   0.5989   0.6010   0.6017   0.6036   0.6075   0.6088   0.6101
  0.6127   0.6159   0.6170   0.6221   0.6225   0.6248   0.6257   0.6278
  0.6318   0.6353   0.6374   0.6392   0.6401   0.6423   0.6429   0.6483
  0.6490   0.6507   0.6562   0.6576   0.6594   0.6600   0.6638   0.6656
  0.6677   0.6690   0.6716   0.6754   0.6802   0.6813   0.6832   0.6852
  0.6883   0.6900   0.6909   0.6938   0.6975   0.6998   0.6999   0.7009
  0.7059   0.7079   0.7100   0.7114   0.7137   0.7170   0.7200   0.7208
  0.7217   0.7231   0.7291   0.7329   0.7349   0.7357   0.7369   0.7385
  0.7406   0.7442   0.7452   0.7462   0.7481   0.7500   0.7527   0.7531
  0.7557   0.7600   0.7622   0.7678   0.7691   0.7718   0.7738   0.7756
  0.7795   0.7798   0.7817   0.7857   0.7896   0.7902   0.7920   0.7932
  0.7972   0.7979   0.7999   0.8006   0.8049   0.8093   0.8132   0.8163
  0.8177   0.8192   0.8221   0.8253   0.8269   0.8291   0.8331   0.8341
  0.8385   0.8403   0.8413   0.8450   0.8492   0.8509   0.8528   0.8558
  0.8577   0.8609   0.8625   0.8670   0.8698   0.8708   0.8744   0.8764
  0.8785   0.8809   0.8826   0.8856   0.8863   0.8895   0.8929   0.8946
  0.8980   0.9018   0.9044   0.9061   0.9082   0.9123   0.9168   0.9180
  0.9207   0.9226   0.9272   0.9296   0.9348   0.9356   0.9368   0.9406
  0.9458   0.9487   0.9508   0.9550   0.9569   0.9608   0.9627   0.9660
  0.9698   0.9748   0.9757   0.9789   0.9810   0.9868   0.9901   0.9922
  0.9981   1.0018   1.0023   1.0054   1.0070   1.0110   1.0142   1.0193
  1.0211   1.0238   1.0255   1.0303   1.0313   1.0374   1.0384   1.0412
  1.0433   1.0469   1.0525   1.0584   1.0597   1.0654   1.0676   1.0703
  1.0720   1.0757   1.0774   1.0795   1.0852   1.0869   1.0891   1.0951
  1.1001   1.1025   1.1064   1.1099   1.1162   1.1172   1.1237   1.1279
  1.1302   1.1318   1.1335   1.1367   1.1406   1.1459   1.1475   1.1490
  1.1514   1.1535   1.1572   1.1614   1.1660   1.1741   1.1769   1.1782
  1.1844   1.1865   1.1907   1.1941   1.1960   1.1998   1.2011   1.2040
  1.2072   1.2092   1.2152   1.2181   1.2217   1.2234   1.2285   1.2289
  1.2341   1.2365   1.2401   1.2439   1.2465   1.2488   1.2530   1.2560
  1.2572   1.2680   1.2693   1.2752   1.2772   1.2798   1.2852   1.2865
  1.2882   1.2956   1.2963   1.2977   1.3001   1.3040   1.3073   1.3106
  1.3116   1.3154   1.3179   1.3244   1.3280   1.3336   1.3366   1.3434
  1.3482   1.3506   1.3533   1.3587   1.3634   1.3655   1.3700   1.3726
  1.3738   1.3835   1.3843   1.3919   1.3982   1.4025   1.4049   1.4061
  1.4087   1.4126   1.4183   1.4248   1.4260   1.4306   1.4336   1.4342
  1.4443   1.4474   1.4573   1.4628   1.4644   1.4705   1.4735   1.4796
  1.4824   1.4852   1.4939   1.4978   1.5017   1.5030   1.5093   1.5102
  1.5168   1.5204   1.5265   1.5302   1.5308   1.5375   1.5431   1.5457
  1.5502   1.5546   1.5591   1.5632   1.5677   1.5744   1.5771   1.5811
  1.5834   1.5861   1.5869   1.5932   1.5974   1.6051   1.6072   1.6086
  1.6152   1.6185   1.6203   1.6223   1.6254   1.6322   1.6381   1.6392
  1.6438   1.6533   1.6561   1.6611   1.6619   1.6654   1.6669   1.6732
  1.6752   1.6805   1.6808   1.6866   1.6924   1.6955   1.7009   1.7062
  1.7078   1.7120   1.7148   1.7163   1.7211   1.7233   1.7249   1.7278
  1.7322   1.7345   1.7366   1.7466   1.7508   1.7538   1.7553   1.7570
  1.7596   1.7619   1.7673   1.7709   1.7723   1.7784   1.7857   1.7867
  1.7915   1.7987   1.8001   1.8085   1.8112   1.8158   1.8183   1.8238
  1.8267   1.8282   1.8376   1.8384   1.8414   1.8457   1.8496   1.8545
  1.8607   1.8624   1.8667   1.8760   1.8794   1.8838   1.8866   1.8877
  1.8950   1.9018   1.9056   1.9132   1.9145   1.9169   1.9208   1.9217
  1.9225   1.9273   1.9314   1.9347   1.9381   1.9438   1.9461   1.9517
  1.9566   1.9577   1.9643   1.9658   1.9680   1.9687   1.9818   1.9869
  1.9897   1.9949   1.9960   1.9991   2.0032   2.0055   2.0084   2.0096
  2.0158   2.0200   2.0224   2.0271   2.0313   2.0352   2.0376   2.0382
  2.0480   2.0495   2.0508   2.0554   2.0589   2.0637   2.0651   2.0687
  2.0710   2.0736   2.0780   2.0838   2.0853   2.0892   2.0912   2.0968
  2.1014   2.1072   2.1089   2.1120   2.1168   2.1232   2.1278   2.1338
  2.1372   2.1404   2.1466   2.1545   2.1564   2.1614   2.1653   2.1722
  2.1755   2.1806   2.1824   2.1861   2.1943   2.1988   2.2044   2.2079
  2.2149   2.2170   2.2188   2.2198   2.2262   2.2319   2.2410   2.2463
  2.2540   2.2565   2.2628   2.2666   2.2711   2.2759   2.2772   2.2821
  2.2839   2.2863   2.2909   2.2949   2.3003   2.3084   2.3088   2.3117
  2.3173   2.3234   2.3286   2.3344   2.3391   2.3391   2.3521   2.3565
  2.3585   2.3693   2.3781   2.3789   2.3830   2.3871   2.3928   2.3979
  2.4044   2.4149   2.4182   2.4211   2.4268   2.4274   2.4340   2.4362
  2.4405   2.4440   2.4502   2.4568   2.4603   2.4657   2.4717   2.4768
  2.4785   2.4811   2.4886   2.4914   2.4994   2.5022   2.5075   2.5132
  2.5173   2.5291   2.5356   2.5367   2.5440   2.5553   2.5579   2.5604
  2.5640   2.5712   2.5740   2.5771   2.5883   2.5930   2.6009   2.6089
  2.6099   2.6249   2.6260   2.6263   2.6421   2.6476   2.6491   2.6571
  2.6656   2.6716   2.6746   2.6852   2.6893   2.7001   2.7045   2.7090
  2.7122   2.7280   2.7316   2.7345   2.7392   2.7490   2.7560   2.7596
  2.7682   2.7711   2.7811   2.7878   2.8063   2.8091   2.8131   2.8212
  2.8243   2.8296   2.8347   2.8392   2.8491   2.8497   2.8634   2.8694
  2.8836   2.8844   2.8900   2.9044   2.9074   2.9095   2.9135   2.9267
  2.9453   2.9513   2.9653   2.9715   2.9738   2.9958   3.0074   3.0123
  3.0242   3.0355   3.0518   3.0642   3.0731   3.0754   3.0824   3.0949
  3.1082   3.1196   3.1260   3.1497   3.1692   3.1851   3.2041   3.2342
  3.2525   3.2661   3.2971   3.3062   3.3249   3.3275   3.3488   3.3593
  3.3954   3.4269   3.4338   3.4410   3.4508   3.4540   3.4632   3.4674
  3.4721   3.4806   3.4842   3.4924   3.5000   3.5045   3.5070   3.5113
  3.5219   3.5234   3.5290   3.5311   3.5473   3.5480   3.5540   3.5564
  3.5585   3.5620   3.5675   3.5718   3.5788   3.5813   3.5908   3.5941
  3.5996   3.6089   3.6173   3.6235   3.6282   3.6442   3.6514   3.6682
  3.6800   3.6888   3.6938   3.7002   3.7084   3.7191   3.7204   3.7339
  3.7403   3.7484   3.7495   3.7740   3.7875   3.7993   3.8004   3.8172
  3.8248   3.8352   3.8395   3.8533   3.8744   3.8871   3.8935   3.9074
  3.9273   3.9398   3.9577   3.9652   4.0001   4.0060   4.0209   4.0263
  4.0364   4.0400   4.0751   4.0771   4.1210   4.1453   4.1525   4.1823
  4.2069   4.2511   4.2613   4.3042   4.3660   4.4144   4.5190   4.5895
  4.6118   4.7019   4.7363
 --------------------------------------------------------------
 
          Ground-State Mulliken Net Atomic Charges

     Atom                 Charge (a.u.)    Spin (a.u.)
  --------------------------------------------------------
      1 N                     0.922425       0.002302
      2 C                     0.645697      -0.001213
      3 H                    -0.370767      -0.000016
      4 N                     0.204949      -0.005676
      5 H                    -0.009026       0.000149
      6 C                     1.071591      -0.000056
      7 O                    -0.904367      -0.000004
      8 C                     0.373148       0.005848
      9 O                    -0.935567       0.000484
     10 C                    -0.676562      -0.005958
     11 C                     0.895779       0.004871
     12 H                     0.020218      -0.000501
     13 H                    -0.342052       0.000391
     14 H                     0.038820       0.001770
     15 C                     0.911904       0.002812
     16 H                    -0.419873       0.002016
     17 H                    -0.286254       0.002463
     18 C                     0.141432       0.068507
     19 C                     1.034325      -0.005314
     20 C                     0.931978      -0.002632
     21 H                    -0.223620       0.000815
     22 H                    -0.445891       0.001142
     23 C                     0.270910       0.000270
     24 O                    -0.808472      -0.000402
     25 N                     0.078008       0.000356
     26 H                     0.100995       0.000314
     27 C                     0.936437      -0.000279
     28 O                    -0.886570       0.000013
     29 N                     0.920626       0.009540
     30 C                    -0.960394      -0.009248
     31 C                     1.307046       0.003205
     32 H                    -0.136218       0.000444
     33 H                    -0.015256       0.000576
     34 H                    -0.306131       0.000246
     35 C                     0.774572      -0.002757
     36 H                    -0.533942       0.001328
     37 H                    -0.421969       0.000589
     38 C                     1.086816       0.000041
     39 H                    -0.811662       0.007808
     40 H                    -0.380515      -0.000718
     41 C                     0.815396       0.000920
     42 H                    -0.393422       0.000105
     43 H                    -0.264287      -0.000093
     44 C                     0.656557      -0.001305
     45 H                    -0.239462       0.000026
     46 H                    -0.439646      -0.000069
     47 C                     0.655638      -0.000176
     48 H                    -0.497649      -0.000059
     49 C                     0.725838       0.000761
     50 H                    -0.273380      -0.000005
     51 H                    -0.273594       0.000028
     52 C                     0.756790       0.001424
     53 H                    -0.313267       0.001621
     54 H                    -0.540550       0.002223
     55 C                     0.946630      -0.003934
     56 H                    -0.441372       0.004013
     57 H                    -0.418621       0.000865
     58 C                     0.521922       0.001722
     59 H                    -0.476605       0.000579
     60 H                    -0.402227       0.000020
     61 O                    -0.881731       0.000029
     62 O                    -0.874571      -0.000039
     63 O                    -0.826601       0.228456
     64 Fe                    1.748839       4.096712
     65 O                    -0.945058       0.095334
     66 O                    -0.778825       0.190022
     67 O                    -0.771354       0.069428
     68 O                    -1.142149       0.127110
     69 O                    -0.892209       0.016763
     70 O                    -0.533596       0.083995
  --------------------------------------------------------
  Sum of atomic charges =    -3.000000
  Sum of spin   charges =     5.000000

 -----------------------------------------------------------------
                    Cartesian Multipole Moments
 -----------------------------------------------------------------
    Charge (ESU x 10^10)
               -14.4096
    Dipole Moment (Debye)
         X      -4.6135      Y      28.6427      Z      -6.5356
       Tot      29.7389
    Quadrupole Moments (Debye-Ang)
        XX    -518.0274     XY      14.7611     YY    -320.6931
        XZ     -49.4590     YZ     -38.1087     ZZ    -345.7014
    Octopole Moments (Debye-Ang^2)
       XXX    -815.1644    XXY     883.4623    XYY    -195.6895
       YYY     417.1248    XXZ     183.5096    XYZ      67.7993
       YYZ      60.9196    XZZ     212.7485    YZZ     218.9711
       ZZZ    -111.6329
    Hexadecapole Moments (Debye-Ang^3)
      XXXX  -26964.0608   XXXY    3877.9359   XXYY   -5902.4620
      XYYY    1629.8236   YYYY   -8392.9425   XXXZ   -1394.3927
      XXYZ    -692.2817   XYYZ    -271.4871   YYYZ    -468.2106
      XXZZ   -4434.0862   XYZZ      66.2265   YYZZ   -2431.7828
      XZZZ    -463.2786   YZZZ    -292.7253   ZZZZ   -5342.0543
 -----------------------------------------------------------------
 Total job time:  373568.13s(wall), 5621749.42s(cpu) 
 Mon May 27 15:54:27 2024

        *************************************************************
        *                                                           *
        *  Thank you very much for using Q-Chem.  Have a nice day.  *
        *                                                           *
        *************************************************************


