
Running Job 1 of 1 C_FeAB_C_ccL_3sextet_SfS_tpssh_augccpvdz_pcmH2O_tddft100_6.in
qchem C_FeAB_C_ccL_3sextet_SfS_tpssh_augccpvdz_pcmH2O_tddft100_6.in_1890939.0 /data/scratch/C_FeAB_C_ccL_3sextet_SfS_tpssh_augccpvdz_pcmH2O_tddft100_620240607173423/ 0
/opt/qchem/6.0.1/exe/qcprog.exe_s C_FeAB_C_ccL_3sextet_SfS_tpssh_augccpvdz_pcmH2O_tddft100_6.in_1890939.0 /data/scratch/C_FeAB_C_ccL_3sextet_SfS_tpssh_augccpvdz_pcmH2O_tddft100_620240607173423/
                  Welcome to Q-Chem
     A Quantum Leap Into The Future Of Chemistry


 Q-Chem 6.0, Q-Chem, Inc., Pleasanton, CA (2022)

 E. Epifanovsky,  A. T. B. Gilbert,  Xintian Feng,  Joonho Lee,  Yuezhi Mao,  
 N. Mardirossian,  P. Pokhilko,  A. White,  M. Wormit,  M. P. Coons,  
 A. L. Dempwolff,  Zhengting Gan,  D. Hait,  P. R. Horn,  L. D. Jacobson,  
 I. Kaliman,  J. Kussmann,  A. W. Lange,  Ka Un Lao,  D. S. Levine,  Jie Liu,  
 S. C. McKenzie,  A. F. Morrison,  K. Nanda,  F. Plasser,  D. R. Rehn,  
 M. L. Vidal,  Zhi-Qiang You,  Ying Zhu,  B. Alam,  B. Albrecht,  
 A. Aldossary,  E. Alguire,  J. H. Andersen,  V. Athavale,  D. Barton,  
 K. Begam,  A. Behn,  N. Bellonzi,  Y. A. Bernard,  E. J. Berquist,  
 H. Burton,  A. Carreras,  K. Carter-Fenk,  Romit Chakraborty,  
 Chandrima Chakravarty,  Junhan Chen,  A. D. Chien,  K. D. Closser,  
 V. Cofer-Shabica,  L. Cunha,  S. Dasgupta,  Jia Deng,  M. de Wergifosse,  
 M. Diedenhofen,  Hainam Do,  S. Ehlert,  Po-Tung Fang,  S. Fatehi,  
 Qingguo Feng,  T. Friedhoff,  B. Ganoe,  J. Gayvert,  Qinghui Ge,  
 G. Gidofalvi,  M. Goldey,  J. Gomes,  C. Gonzalez-Espinoza,  S. Gulania,  
 A. Gunina,  J. A. Gyamfi,  M. W. D. Hanson-Heine,  P. H. P. Harbach,  
 A. W. Hauser,  M. F. Herbst,  M. Hernandez Vera,  M. Hodecker,  
 Z. C. Holden,  S. Houck,  Xunkun Huang,  Kerwin Hui,  B. C. Huynh,  
 K. Ikeda,  M. Ivanov,  Hyunjun Ji,  Zuxin Jin,  Hanjie Jiang,  B. Kaduk,  
 S. Kaehler,  R. Kang,  K. Khistyaev,  Jaehoon Kim,  Yongbin Kim,  
 P. Klunzinger,  Z. Koczor-Benda,  Joong Hoon Koh,  D. Kosenkov,  
 Saikiran Kotaru,  L. Koulias,  T. Kowalczyk,  C. M. Krauter,  K. Kue,  
 A. Kunitsa,  T. Kus,  A. Landau,  K. V. Lawler,  D. Lefrancois,  S. Lehtola,  
 Rain Li,  Shaozhi Li,  Yi-Pei Li,  Jiashu Liang,  M. Liebenthal,  
 Hung-Hsuan Lin,  You-Sheng Lin,  Fenglai Liu,  Kuan-Yu Liu,  
 M. Loipersberger,  A. Luenser,  C. Malbon,  A. Manjanath,  P. Manohar,  
 E. Mansoor,  S. F. Manzer,  Shan-Ping Mao,  A. V. Marenich,  T. Markovich,  
 S. Mason,  F. Matz,  S. A. Maurer,  P. F. McLaughlin,  M. F. S. J. Menger,  
 J.-M. Mewes,  S. A. Mewes,  P. Morgante,  Mohammad Mostafanejad,  
 J. W. Mullinax,  K. J. Oosterbaan,  G. Paran,  V. Parravicini,  
 Alexander C. Paul,  Suranjan K. Paul,  F. Pavosevic,  Zheng Pei,  S. Prager,  
 E. I. Proynov,  E. Ramos,  B. Rana,  A. E. Rask,  A. Rettig,  R. M. Richard,  
 F. Rob,  E. Rossomme,  T. Scheele,  M. Scheurer,  M. Schneider,  
 P. E. Schneider,  N. Sergueev,  S. M. Sharada,  Hengyuan Shen,  
 W. Skomorowski,  D. W. Small,  C. J. Stein,  Yingli Su,  Yu-Chuan Su,  
 E. J. Sundstrom,  Zhen Tao,  J. Thirman,  Hung-Yi Tsai,  T. Tsuchimochi,  
 N. M. Tubman,  C. Utku,  S. P. Veccham,  O. Vydrov,  J. Wenzel,  
 Jonathan Wong,  J. Witte,  A. Yamada,  Chou-Hsun Yang,  Kun Yao,  
 S. Yeganeh,  S. R. Yost,  A. Zech,  F. Zeller,  Igor Ying Zhang,  
 Xing Zhang,  Yu Zhang,  D. Zuev,  A. Aspuru-Guzik,  A. T. Bell,  
 N. A. Besley,  K. B. Bravaya,  B. R. Brooks,  D. Casanova,  Jeng-Da Chai,  
 Hsing-Ta Chen,  S. Coriani,  C. J. Cramer,  A. E. DePrince, III,  
 R. A. DiStasio Jr.,  A. Dreuw,  B. D. Dunietz,  T. R. Furlani,  
 W. A. Goddard III,  S. Grimme,  S. Hammes-Schiffer,  T. Head-Gordon,  
 W. J. Hehre,  Chao-Ping Hsu,  T.-C. Jagau,  Yousung Jung,  A. Klamt,  
 Jing Kong,  D. S. Lambrecht,  Xiangyuan Li,  WanZhen Liang,  N. J. Mayhall,  
 C. W. McCurdy,  J. B. Neaton,  T. Neudecker,  C. Ochsenfeld,  
 J. A. Parkhill,  R. Peverati,  V. A. Rassolov,  Haisheng Ren,  Yihan Shao,  
 L. V. Slipchenko,  R. P. Steele,  J. E. Subotnik,  A. J. W. Thom,  
 A. Tkatchenko,  D. G. Truhlar,  T. Van Voorhis,  Fan Wang,  
 T. A. Wesolowski,  K. B. Whaley,  H. L. Woodcock III,  P. M. Zimmerman,  
 S. Faraji,  P. M. W. Gill,  M. Head-Gordon,  J. M. Herbert,  A. I. Krylov

 Contributors to earlier versions of Q-Chem not listed above: 
 R. D. Adamson,  B. Austin,  R. Baer,  J. Baker,  G. J. O. Beran,  
 K. Brandhorst,  S. T. Brown,  E. F. C. Byrd,  Arup K. Chakraborty,  
 G. K. L. Chan,  Chun-Min Chang,  Yunqing Chen,  C.-L. Cheng,  
 Siu Hung Chien,  D. M. Chipman,  D. L. Crittenden,  H. Dachsel,  
 R. J. Doerksen,  A. D. Dutoi,  R. G. Edgar,  J. Fosso-Tande,  
 L. Fusti-Molnar,  D. Ghosh,  A. Ghysels,  A. Golubeva-Zadorozhnaya,  
 J. Gonthier,  M. S. Gordon,  S. R. Gwaltney,  G. Hawkins,  J. E. Herr,  
 A. Heyden,  S. Hirata,  E. G. Hohenstein,  G. Kedziora,  F. J. Keil,  
 C. Kelley,  Jihan Kim,  R. A. King,  R. Z. Khaliullin,  P. P. Korambath,  
 W. Kurlancheek,  A. Laurent,  A. M. Lee,  M. S. Lee,  S. V. Levchenko,  
 Ching Yeh Lin,  D. Liotard,  E. Livshits,  R. C. Lochan,  I. Lotan,  
 L. A. Martinez-Martinez,  P. E. Maslen,  N. Nair,  D. P. O'Neill,  
 D. Neuhauser,  E. Neuscamman,  C. M. Oana,  R. Olivares-Amaya,  R. Olson,  
 T. M. Perrine,  B. Peters,  P. A. Pieniazek,  A. Prociuk,  Y. M. Rhee,  
 J. Ritchie,  M. A. Rohrdanz,  E. Rosta,  N. J. Russ,  H. F. Schaefer III,  
 M. W. Schmidt,  N. E. Schultz,  S. Sharma,  N. Shenvi,  C. D. Sherrill,  
 A. C. Simmonett,  A. Sodt,  T. Stein,  D. Stuck,  K. S. Thanthiriwatte,  
 V. Vanovschi,  L. Vogt,  Tao Wang,  A. Warshel,  M. A. Watson,  
 C. F. Williams,  Q. Wu,  X. Xu,  Jun Yang,  W. Zhang,  Yan Zhao

   Please cite Q-Chem as follows:
  "Software for the frontiers of quantum chemistry:
   An overview of developments in the Q-Chem 5 package"
   J. Chem. Phys. 155, 084801 (2021)
   https://doi.org/10.1063/5.0055522 (open access)

 Q-Chem 6.0.2 for Intel X86 EM64T Linux

 Parts of Q-Chem use Armadillo 9.900.5 (Nocturnal Misbehaviour).
 http://arma.sourceforge.net/

 Q-Chem begins on Fri Jun  7 17:34:23 2024  

 Host: 
0

     Scratch files written to /data/scratch/C_FeAB_C_ccL_3sextet_SfS_tpssh_augccpvdz_pcmH2O_tddft100_620240607173423//
 Dec722 |scratch|qcdevops|jenkins|workspace|build_RNUM 8907   
 Processing $rem in /opt/qchem/6.0.1/config/preferences:
 Processing $rem in /home/sgardner/.qchemrc:
 Symmetry turned off for PCM/SM12/SMD calculation

 Checking the input file for inconsistencies... 	...done.

--------------------------------------------------------------
User input:
--------------------------------------------------------------
$molecule
-3 6
N   -2.4262102    2.5604723   -0.8388025
C   -4.3697264   -2.3336989   -0.1243507
H   -4.9163457   -2.9093987    0.6470413
N   -2.9499868   -2.3379094    0.2046549
H   -2.4124937   -2.8745561   -0.4769806
C   -4.5455961   -3.0993934   -1.4737688
O   -5.7154687   -3.1484993   -1.9280402
C   -2.4071864   -1.9391830    1.3721450
O   -3.0622167   -1.3505365    2.2496255
C   -2.0260630    3.5569212   -0.0511169
C   -2.8224130    4.8326616    0.0355603
H   -2.9682921    5.2877820   -0.9554896
H   -3.8154730    4.6506223    0.4749855
H   -2.2735848    5.5343202    0.6753001
C   -0.9430901   -2.2984130    1.5792450
H   -0.5813581   -2.9897818    0.8076472
H   -0.8907196   -2.8071863    2.5541622
C    0.0248566   -1.0904764    1.6136425
C   -0.4023025   -0.0945765    2.7302256
C    1.4595839   -1.5656434    1.9909156
H    1.4140664   -2.2467807    2.8538641
H    2.0406134   -0.6806518    2.2864484
C    2.1625088   -2.2635353    0.8394093
O    1.7302344   -3.3027351    0.3116678
N    3.2951585   -1.6595203    0.4289569
H    3.7112878   -0.9028188    0.9688634
C    5.5855270   -1.5076207   -0.4073526
O    6.4751314   -1.8720256   -1.2109804
N    2.3914871    2.0758288   -0.9324525
C    2.7142644    2.1492393    0.3542508
C    4.1437604    2.3318265    0.7774986
H    4.1514166    2.7719598    1.7833001
H    4.6598169    1.3558948    0.8110818
H    4.6994620    2.9843751    0.0899630
C    3.3172906    1.9925213   -2.0649954
H    2.7035038    2.2093245   -2.9495150
H    4.0716868    2.7879089   -1.9726642
C    3.9927289    0.6221881   -2.1631300
H    4.6786713    0.6320796   -3.0287325
H    4.6205966    0.4922398   -1.2721198
C    3.0007509   -0.5398420   -2.2649117
H    2.2018479   -0.3838117   -1.5239185
H    2.5126842   -0.5208691   -3.2557272
C    3.6132403   -1.9260634   -2.0320803
H    2.8324926   -2.6821713   -2.2133668
H    4.4345799   -2.1257699   -2.7395310
C    4.1798414   -2.1519367   -0.6100848
H    4.3115437   -3.2410287   -0.4841466
C   -4.6661962    1.4818041   -0.9598821
H   -4.7163975    1.7087111    0.1202045
H   -5.6686564    1.6954810   -1.3701588
C   -3.6718365    2.4648034   -1.5943758
H   -4.1047336    3.4700505   -1.6521166
H   -3.4091848    2.1495764   -2.6177236
C   -4.3069943    0.0039695   -1.1649159
H   -3.2225310   -0.1024074   -1.0432693
H   -4.5450688   -0.2942986   -2.2020456
C   -4.9985800   -0.9313343   -0.1757820
H   -4.9406598   -0.4949368    0.8330492
H   -6.0630384   -1.0627410   -0.4265266
O   -3.5035423   -3.6032774   -1.9812468
O    5.7053501   -0.6821135    0.5482107
O    0.0656825   -0.4509090    0.3732389
Fe   -0.0829581    1.4589670    0.3683627
O   -0.6582137    1.1066293    2.3136245
O   -1.6709869    1.4268675   -0.8297078
O   -0.9580370    3.4058589    0.6257068
O    1.0734615    1.8875961   -1.2350858
O   -0.4246347   -0.4524129    3.9146550
O    1.7841578    2.0491767    1.2237764
$end

$rem
BASIS  =  gen
CIS_N_ROOTS  =  100
CORRELATION  =  TPSS
EXCHANGE  =  TPSSH
GUI  =  2
JOB_TYPE  =  SP
SCF_CONVERGENCE  =  8
SOLVENT_METHOD  =  PCM
UNRESTRICTED  =  1
MEM_TOTAL  =  30000
$end

$pcm
THEORY  CPCM
$end

$solvent
DIELECTRIC  78.39
$end

$van_der_waals
26   2.44
$end

!----------------------------------------------------------------------
! Basis Set Exchange
! Basis set: aug-cc-pVDZ
!----------------------------------------------------------------------

$rem
BASIS GEN
PURECART 11
$end

$basis
H     0
S   4   1.00
1.301000D+01           1.968500D-02
1.962000D+00           1.379770D-01
4.446000D-01           4.781480D-01
1.220000D-01           5.012400D-01
S   1   1.00
1.220000D-01           1.000000D+00
S   1   1.00
0.0297400              1.0000000
P   1   1.00
7.270000D-01           1.0000000
P   1   1.00
0.1410000              1.0000000
****
C     0
S   9   1.00
6.665000D+03           6.920000D-04
1.000000D+03           5.329000D-03
2.280000D+02           2.707700D-02
6.471000D+01           1.017180D-01
2.106000D+01           2.747400D-01
7.495000D+00           4.485640D-01
2.797000D+00           2.850740D-01
5.215000D-01           1.520400D-02
1.596000D-01          -3.191000D-03
S   9   1.00
6.665000D+03          -1.460000D-04
1.000000D+03          -1.154000D-03
2.280000D+02          -5.725000D-03
6.471000D+01          -2.331200D-02
2.106000D+01          -6.395500D-02
7.495000D+00          -1.499810D-01
2.797000D+00          -1.272620D-01
5.215000D-01           5.445290D-01
1.596000D-01           5.804960D-01
S   1   1.00
1.596000D-01           1.000000D+00
S   1   1.00
0.0469000              1.0000000
P   4   1.00
9.439000D+00           3.810900D-02
2.002000D+00           2.094800D-01
5.456000D-01           5.085570D-01
1.517000D-01           4.688420D-01
P   1   1.00
1.517000D-01           1.000000D+00
P   1   1.00
0.0404100              1.0000000
D   1   1.00
5.500000D-01           1.0000000
D   1   1.00
0.1510000              1.0000000
****
N     0
S   9   1.00
9.046000D+03           7.000000D-04
1.357000D+03           5.389000D-03
3.093000D+02           2.740600D-02
8.773000D+01           1.032070D-01
2.856000D+01           2.787230D-01
1.021000D+01           4.485400D-01
3.838000D+00           2.782380D-01
7.466000D-01           1.544000D-02
2.248000D-01          -2.864000D-03
S   9   1.00
9.046000D+03          -1.530000D-04
1.357000D+03          -1.208000D-03
3.093000D+02          -5.992000D-03
8.773000D+01          -2.454400D-02
2.856000D+01          -6.745900D-02
1.021000D+01          -1.580780D-01
3.838000D+00          -1.218310D-01
7.466000D-01           5.490030D-01
2.248000D-01           5.788150D-01
S   1   1.00
2.248000D-01           1.000000D+00
S   1   1.00
0.0612400              1.0000000
P   4   1.00
1.355000D+01           3.991900D-02
2.917000D+00           2.171690D-01
7.973000D-01           5.103190D-01
2.185000D-01           4.622140D-01
P   1   1.00
2.185000D-01           1.000000D+00
P   1   1.00
0.0561100              1.0000000
D   1   1.00
8.170000D-01           1.0000000
D   1   1.00
0.2300000              1.0000000
****
O     0
S   9   1.00
1.172000D+04           7.100000D-04
1.759000D+03           5.470000D-03
4.008000D+02           2.783700D-02
1.137000D+02           1.048000D-01
3.703000D+01           2.830620D-01
1.327000D+01           4.487190D-01
5.025000D+00           2.709520D-01
1.013000D+00           1.545800D-02
3.023000D-01          -2.585000D-03
S   9   1.00
1.172000D+04          -1.600000D-04
1.759000D+03          -1.263000D-03
4.008000D+02          -6.267000D-03
1.137000D+02          -2.571600D-02
3.703000D+01          -7.092400D-02
1.327000D+01          -1.654110D-01
5.025000D+00          -1.169550D-01
1.013000D+00           5.573680D-01
3.023000D-01           5.727590D-01
S   1   1.00
3.023000D-01           1.000000D+00
S   1   1.00
0.0789600              1.0000000
P   4   1.00
1.770000D+01           4.301800D-02
3.854000D+00           2.289130D-01
1.046000D+00           5.087280D-01
2.753000D-01           4.605310D-01
P   1   1.00
2.753000D-01           1.000000D+00
P   1   1.00
0.0685600              1.0000000
D   1   1.00
1.185000D+00           1.0000000
D   1   1.00
0.3320000              1.0000000
****
Fe     0
S   20   1.00
4.316265D+06           8.048803D-06
6.463424D+05           6.258306D-05
1.470897D+05           3.290239D-04
4.166152D+04           1.387355D-03
1.359077D+04           5.023256D-03
4.905750D+03           1.610140D-02
1.912746D+03           4.590034D-02
7.926043D+02           1.136154D-01
3.448065D+02           2.283869D-01
1.558999D+02           3.221159D-01
7.223091D+01           2.383661D-01
3.272506D+01           7.404667D-02
1.566762D+01           9.214197D-02
7.503483D+00           9.339790D-02
3.312223D+00           1.573965D-02
1.558471D+00          -4.186682D-04
6.839140D-01           5.376318D-05
1.467570D-01          -3.816654D-05
7.058300D-02           4.319603D-05
3.144900D-02          -3.401019D-06
S   20   1.00
4.316265D+06          -4.155954D-06
6.463424D+05          -3.231401D-05
1.470897D+05          -1.699525D-04
4.166152D+04          -7.171369D-04
1.359077D+04          -2.603625D-03
4.905750D+03          -8.399109D-03
1.912746D+03          -2.434109D-02
7.926043D+02          -6.251948D-02
3.448065D+02          -1.365929D-01
1.558999D+02          -2.312707D-01
7.223091D+01          -2.383734D-01
3.272506D+01           3.123837D-02
1.566762D+01           5.086818D-01
7.503483D+00           4.987695D-01
3.312223D+00           9.033552D-02
1.558471D+00          -6.005337D-03
6.839140D-01           2.312454D-04
1.467570D-01          -5.643680D-04
7.058300D-02           4.992260D-04
3.144900D-02          -1.015293D-04
S   20   1.00
4.316265D+06           9.532178D-07
6.463424D+05           7.414605D-06
1.470897D+05           3.898393D-05
4.166152D+04           1.647152D-04
1.359077D+04           5.985980D-04
4.905750D+03           1.942390D-03
1.912746D+03           5.687237D-03
7.926043D+02           1.501329D-02
3.448065D+02           3.452455D-02
1.558999D+02           6.495820D-02
7.223091D+01           7.716194D-02
3.272506D+01          -1.873411D-02
1.566762D+01          -3.009185D-01
7.503483D+00          -4.554661D-01
3.312223D+00           1.286463D-01
1.558471D+00           7.183316D-01
6.839140D-01           4.051743D-01
1.467570D-01           2.168227D-02
7.058300D-02          -8.343566D-03
3.144900D-02           3.658979D-03
S   20   1.00
4.316265D+06          -2.063008D-07
6.463424D+05          -1.604169D-06
1.470897D+05          -8.438437D-06
4.166152D+04          -3.563151D-05
1.359077D+04          -1.295998D-04
4.905750D+03          -4.201534D-04
1.912746D+03          -1.231954D-03
7.926043D+02          -3.248922D-03
3.448065D+02          -7.493717D-03
1.558999D+02          -1.410102D-02
7.223091D+01          -1.691600D-02
3.272506D+01           4.218996D-03
1.566762D+01           6.833810D-02
7.503483D+00           1.098201D-01
3.312223D+00          -4.009005D-02
1.558471D+00          -2.174739D-01
6.839140D-01          -2.465135D-01
1.467570D-01           2.731435D-01
7.058300D-02           5.748321D-01
3.144900D-02           3.012713D-01
S   20   1.00
4.316265D+06          -4.009367D-07
6.463424D+05          -3.189255D-06
1.470897D+05          -1.623079D-05
4.166152D+04          -7.157920D-05
1.359077D+04          -2.463958D-04
4.905750D+03          -8.544907D-04
1.912746D+03          -2.307593D-03
7.926043D+02          -6.728292D-03
3.448065D+02          -1.366165D-02
1.558999D+02          -3.062240D-02
7.223091D+01          -2.631137D-02
3.272506D+01          -9.760183D-03
1.566762D+01           1.801906D-01
7.503483D+00           1.529634D-01
3.312223D+00           5.505413D-02
1.558471D+00          -9.551364D-01
6.839140D-01           2.586813D-01
1.467570D-01           1.834049D+00
7.058300D-02          -9.333240D-01
3.144900D-02          -6.981605D-01
S   1   1.00
3.144900D-02           1.000000D+00
S   1   1.00
1.401000D-02           1.000000D+00
P   16   1.00
1.774569D+04           4.100000D-05
4.200721D+03           3.690000D-04
1.364429D+03           2.129000D-03
5.220806D+02           9.369000D-03
2.214595D+02           3.309700D-02
1.009096D+02           9.443100D-02
4.840115D+01           2.080770D-01
2.398536D+01           3.323330D-01
1.218250D+01           3.329870D-01
6.242298D+00           1.568430D-01
3.110944D+00           2.154900D-02
1.509958D+00          -2.095000D-03
7.108450D-01          -1.739000D-03
2.731900D-01          -3.000000D-04
1.042330D-01           2.900000D-05
3.829100D-02          -1.100000D-05
P   16   1.00
1.774569D+04          -1.500000D-05
4.200721D+03          -1.300000D-04
1.364429D+03          -7.510000D-04
5.220806D+02          -3.329000D-03
2.214595D+02          -1.191200D-02
1.009096D+02          -3.493300D-02
4.840115D+01          -7.998900D-02
2.398536D+01          -1.346360D-01
1.218250D+01          -1.385980D-01
6.242298D+00           3.027800D-02
3.110944D+00           3.332160D-01
1.509958D+00           4.561530D-01
7.108450D-01           2.850510D-01
2.731900D-01           4.614400D-02
1.042330D-01          -3.249000D-03
3.829100D-02           1.357000D-03
P   16   1.00
1.774569D+04           5.000000D-06
4.200721D+03           4.200000D-05
1.364429D+03           2.410000D-04
5.220806D+02           1.085000D-03
2.214595D+02           3.831000D-03
1.009096D+02           1.142300D-02
4.840115D+01           2.579200D-02
2.398536D+01           4.481800D-02
1.218250D+01           4.459800D-02
6.242298D+00          -1.117700D-02
3.110944D+00          -1.381340D-01
1.509958D+00          -1.882850D-01
7.108450D-01          -1.073990D-01
2.731900D-01           4.448630D-01
1.042330D-01           6.402390D-01
3.829100D-02           6.445700D-02
P   16   1.00
1.774569D+04           3.000000D-06
4.200721D+03           2.900000D-05
1.364429D+03           1.650000D-04
5.220806D+02           7.340000D-04
2.214595D+02           2.626000D-03
1.009096D+02           7.725000D-03
4.840115D+01           1.773300D-02
2.398536D+01           3.005500D-02
1.218250D+01           3.109400D-02
6.242298D+00          -1.004800D-02
3.110944D+00          -8.830600D-02
1.509958D+00          -1.298240D-01
7.108450D-01          -7.693700D-02
2.731900D-01           2.126610D-01
1.042330D-01           5.730610D-01
3.829100D-02           3.696510D-01
P   1   1.00
3.829100D-02           1.000000D+00
P   1   1.00
1.407000D-02           1.000000D+00
D   8   1.00
1.133440D+02           3.530000D-03
3.364140D+01           2.578400D-02
1.233100D+01           9.911900D-02
4.994780D+00           2.390730D-01
2.072800D+00           3.571990D-01
8.307530D-01           3.621880D-01
3.091780D-01           2.364610D-01
1.001300D-01           6.011800D-02
D   8   1.00
1.133440D+02          -3.890000D-03
3.364140D+01          -2.844200D-02
1.233100D+01          -1.124290D-01
4.994780D+00          -2.742570D-01
2.072800D+00          -3.155460D-01
8.307530D-01           5.710900D-02
3.091780D-01           5.636040D-01
1.001300D-01           3.846370D-01
D   1   1.00
1.001300D-01           1.000000D+00
D   1   1.00
3.243000D-02           1.000000D+00
F   2   1.00
3.224300D+00           4.222490D-01
7.758000D-01           7.714680D-01
F   1   1.00
2.749000D-01           1.000000D+00
****
$end



--------------------------------------------------------------
 ----------------------------------------------------------------
             Standard Nuclear Orientation (Angstroms)
    I     Atom           X                Y                Z
 ----------------------------------------------------------------
    1      N      -2.4262102000     2.5604723000    -0.8388025000
    2      C      -4.3697264000    -2.3336989000    -0.1243507000
    3      H      -4.9163457000    -2.9093987000     0.6470413000
    4      N      -2.9499868000    -2.3379094000     0.2046549000
    5      H      -2.4124937000    -2.8745561000    -0.4769806000
    6      C      -4.5455961000    -3.0993934000    -1.4737688000
    7      O      -5.7154687000    -3.1484993000    -1.9280402000
    8      C      -2.4071864000    -1.9391830000     1.3721450000
    9      O      -3.0622167000    -1.3505365000     2.2496255000
   10      C      -2.0260630000     3.5569212000    -0.0511169000
   11      C      -2.8224130000     4.8326616000     0.0355603000
   12      H      -2.9682921000     5.2877820000    -0.9554896000
   13      H      -3.8154730000     4.6506223000     0.4749855000
   14      H      -2.2735848000     5.5343202000     0.6753001000
   15      C      -0.9430901000    -2.2984130000     1.5792450000
   16      H      -0.5813581000    -2.9897818000     0.8076472000
   17      H      -0.8907196000    -2.8071863000     2.5541622000
   18      C       0.0248566000    -1.0904764000     1.6136425000
   19      C      -0.4023025000    -0.0945765000     2.7302256000
   20      C       1.4595839000    -1.5656434000     1.9909156000
   21      H       1.4140664000    -2.2467807000     2.8538641000
   22      H       2.0406134000    -0.6806518000     2.2864484000
   23      C       2.1625088000    -2.2635353000     0.8394093000
   24      O       1.7302344000    -3.3027351000     0.3116678000
   25      N       3.2951585000    -1.6595203000     0.4289569000
   26      H       3.7112878000    -0.9028188000     0.9688634000
   27      C       5.5855270000    -1.5076207000    -0.4073526000
   28      O       6.4751314000    -1.8720256000    -1.2109804000
   29      N       2.3914871000     2.0758288000    -0.9324525000
   30      C       2.7142644000     2.1492393000     0.3542508000
   31      C       4.1437604000     2.3318265000     0.7774986000
   32      H       4.1514166000     2.7719598000     1.7833001000
   33      H       4.6598169000     1.3558948000     0.8110818000
   34      H       4.6994620000     2.9843751000     0.0899630000
   35      C       3.3172906000     1.9925213000    -2.0649954000
   36      H       2.7035038000     2.2093245000    -2.9495150000
   37      H       4.0716868000     2.7879089000    -1.9726642000
   38      C       3.9927289000     0.6221881000    -2.1631300000
   39      H       4.6786713000     0.6320796000    -3.0287325000
   40      H       4.6205966000     0.4922398000    -1.2721198000
   41      C       3.0007509000    -0.5398420000    -2.2649117000
   42      H       2.2018479000    -0.3838117000    -1.5239185000
   43      H       2.5126842000    -0.5208691000    -3.2557272000
   44      C       3.6132403000    -1.9260634000    -2.0320803000
   45      H       2.8324926000    -2.6821713000    -2.2133668000
   46      H       4.4345799000    -2.1257699000    -2.7395310000
   47      C       4.1798414000    -2.1519367000    -0.6100848000
   48      H       4.3115437000    -3.2410287000    -0.4841466000
   49      C      -4.6661962000     1.4818041000    -0.9598821000
   50      H      -4.7163975000     1.7087111000     0.1202045000
   51      H      -5.6686564000     1.6954810000    -1.3701588000
   52      C      -3.6718365000     2.4648034000    -1.5943758000
   53      H      -4.1047336000     3.4700505000    -1.6521166000
   54      H      -3.4091848000     2.1495764000    -2.6177236000
   55      C      -4.3069943000     0.0039695000    -1.1649159000
   56      H      -3.2225310000    -0.1024074000    -1.0432693000
   57      H      -4.5450688000    -0.2942986000    -2.2020456000
   58      C      -4.9985800000    -0.9313343000    -0.1757820000
   59      H      -4.9406598000    -0.4949368000     0.8330492000
   60      H      -6.0630384000    -1.0627410000    -0.4265266000
   61      O      -3.5035423000    -3.6032774000    -1.9812468000
   62      O       5.7053501000    -0.6821135000     0.5482107000
   63      O       0.0656825000    -0.4509090000     0.3732389000
   64      Fe     -0.0829581000     1.4589670000     0.3683627000
   65      O      -0.6582137000     1.1066293000     2.3136245000
   66      O      -1.6709869000     1.4268675000    -0.8297078000
   67      O      -0.9580370000     3.4058589000     0.6257068000
   68      O       1.0734615000     1.8875961000    -1.2350858000
   69      O      -0.4246347000    -0.4524129000     3.9146550000
   70      O       1.7841578000     2.0491767000     1.2237764000
 ----------------------------------------------------------------
 Nuclear Repulsion Energy =        6061.46516462 hartrees
 There are      164 alpha and      159 beta electrons
 Requested basis set is non-standard
 There are 520 shells and 1226 basis functions

 Total QAlloc Memory Limit  30000 MB
 Mega-Array Size       188 MB
 MEM_STATIC part       192 MB

 Using C-PCM dielectric factor f(eps) = (eps-1)/eps = 0.987243
No default van der Waals radius is available for Z = 26
	Found R = 2.4400 A in the $van_der_waals section
 Discretize the solute cavity surface with Lebedev spheres
	Using 110 Lebedev grid points for each H atom
	Using 194 Lebedev grid points for other atoms
	Atomic van der Waals radii (Bondi set) will be scaled by 1.20
 Using smooth SwiG surface discretization
 Remove points where switching function is < 1.0e-08
 Keep 4103 surface tesserae and discard 6957 interior tesserae
 Molecular Surface Area = 526.408 Angst**2

 A cutoff of  1.0D-12 yielded 118107 shell pairs
 There are    624501 function pairs (    711574 Cartesian)
 Smallest overlap matrix eigenvalue = 1.00E-06

 Scale SEOQF with 1.000000e-02/1.000000e-02/1.000000e-01

 Standard Electronic Orientation quadrupole field applied
 Nucleus-field energy     =    -0.0000000522 hartrees
 ================ Generating on-the-fly SAD Guess ================
 Attempting to make child job directory: /data/scratch/C_FeAB_C_ccL_3sextet_SfS_tpssh_augccpvdz_pcmH2O_tddft100_620240607173423//Frg1/
 Attempting to make child job directory: /data/scratch/C_FeAB_C_ccL_3sextet_SfS_tpssh_augccpvdz_pcmH2O_tddft100_620240607173423//Frg2/
 Attempting to make child job directory: /data/scratch/C_FeAB_C_ccL_3sextet_SfS_tpssh_augccpvdz_pcmH2O_tddft100_620240607173423//Frg3/
 Attempting to make child job directory: /data/scratch/C_FeAB_C_ccL_3sextet_SfS_tpssh_augccpvdz_pcmH2O_tddft100_620240607173423//Frg4/
 Attempting to make child job directory: /data/scratch/C_FeAB_C_ccL_3sextet_SfS_tpssh_augccpvdz_pcmH2O_tddft100_620240607173423//Frg5/
 Creating input file /data/scratch/C_FeAB_C_ccL_3sextet_SfS_tpssh_augccpvdz_pcmH2O_tddft100_620240607173423/Frg1.input
 using default PutDataFrgm: nothing
 calling putenv with: QCSCRATCH=/data/scratch/C_FeAB_C_ccL_3sextet_SfS_tpssh_augccpvdz_pcmH2O_tddft100_620240607173423/ 
 Spawning Job For Fragment 0
 Done Job For Fragment 0
 calling putenv with: QCSCRATCH=/data/scratch 
 calling putenv with: QCTHREADS=20 
 Creating input file /data/scratch/C_FeAB_C_ccL_3sextet_SfS_tpssh_augccpvdz_pcmH2O_tddft100_620240607173423/Frg2.input
 using default PutDataFrgm: nothing
 calling putenv with: QCSCRATCH=/data/scratch/C_FeAB_C_ccL_3sextet_SfS_tpssh_augccpvdz_pcmH2O_tddft100_620240607173423/ 
 Spawning Job For Fragment 1
 Done Job For Fragment 1
 calling putenv with: QCSCRATCH=/data/scratch 
 calling putenv with: QCTHREADS=20 
 Creating input file /data/scratch/C_FeAB_C_ccL_3sextet_SfS_tpssh_augccpvdz_pcmH2O_tddft100_620240607173423/Frg3.input
 using default PutDataFrgm: nothing
 calling putenv with: QCSCRATCH=/data/scratch/C_FeAB_C_ccL_3sextet_SfS_tpssh_augccpvdz_pcmH2O_tddft100_620240607173423/ 
 Spawning Job For Fragment 2
 Done Job For Fragment 2
 calling putenv with: QCSCRATCH=/data/scratch 
 calling putenv with: QCTHREADS=20 
 Creating input file /data/scratch/C_FeAB_C_ccL_3sextet_SfS_tpssh_augccpvdz_pcmH2O_tddft100_620240607173423/Frg4.input
 using default PutDataFrgm: nothing
 calling putenv with: QCSCRATCH=/data/scratch/C_FeAB_C_ccL_3sextet_SfS_tpssh_augccpvdz_pcmH2O_tddft100_620240607173423/ 
 Spawning Job For Fragment 3
 Done Job For Fragment 3
 calling putenv with: QCSCRATCH=/data/scratch 
 calling putenv with: QCTHREADS=20 
 Creating input file /data/scratch/C_FeAB_C_ccL_3sextet_SfS_tpssh_augccpvdz_pcmH2O_tddft100_620240607173423/Frg5.input
 using default PutDataFrgm: nothing
 calling putenv with: QCSCRATCH=/data/scratch/C_FeAB_C_ccL_3sextet_SfS_tpssh_augccpvdz_pcmH2O_tddft100_620240607173423/ 
 Spawning Job For Fragment 4
 Done Job For Fragment 4
 calling putenv with: QCSCRATCH=/data/scratch 
 calling putenv with: QCTHREADS=20 
 Time for running child jobs:  CPU 0.03 s  wall 78.39 s
 ============= Method Specific SAD Guess Constructed =============
 Guess from on-the-fly superposition of atomic densities
 Warning: Energy on first SCF cycle will be non-variational

 -----------------------------------------------------------------------
  General SCF calculation program by
  Eric Jon Sundstrom, Paul Horn, Yuezhi Mao, Dmitri Zuev, Alec White,
  David Stuck, Shaama M.S., Shane Yost, Joonho Lee, David Small,
  Daniel Levine, Susi Lehtola, Hugh Burton, Evgeny Epifanovsky,
  Bang C. Huynh
 -----------------------------------------------------------------------
 Exchange:     0.1000 Hartree-Fock + 0.9000 TPSS
 Correlation:  1.0000 TPSS
 Using SG-2 standard quadrature grid
 using 20 threads for integral computing
 -------------------------------------------------------
 OpenMP Integral computing Module                
 Release: version 1.0, May 2013, Q-Chem Inc. Pittsburgh 
 -------------------------------------------------------
 C-PCM solvent model [f = (eps-1)/eps], solve by matrix inversion
 A unrestricted SCF calculation will be
 performed using DIIS
 SCF converges when DIIS error is below 1.0e-08
 ---------------------------------------
  Cycle       Energy         DIIS error
 ---------------------------------------
    1   -3331.1398489474      9.83e-03  
    2   -3316.7559363924      1.48e-03  
    3   -3304.6754746775      5.04e-03  
    4   -3309.0333035946      3.33e-03  
    5   -3317.2188593634      1.36e-03  
    6   -3317.9161737156      4.91e-04  
    7   -3317.9886196017      3.73e-04  
    8   -3318.0644973205      1.07e-04  
    9   -3318.0705646580      6.01e-05  
   10   -3318.0715582623      4.17e-05  
   11   -3318.0722351262      2.53e-05  
   12   -3318.0725263141      1.03e-05  
   13   -3318.0725901054      3.88e-06  
   14   -3318.0725971220      1.81e-06  
   15   -3318.0725990038      7.89e-07  
   16   -3318.0725995463      3.60e-07  
   17   -3318.0725997259      1.91e-07  
   18   -3318.0725997495      1.08e-07  
   19   -3318.0725997595      4.67e-08  
   20   -3318.0725997615      2.06e-08  
   21   -3318.0725997621      1.12e-08  
   22   -3318.0725997596      6.04e-09  Convergence criterion met
 ---------------------------------------
 SCF time:   CPU 230610.42s  wall 12978.00s 
<S^2> =          8.757276193

************** Final PCM Free Energy Summary **************
 G_electrostatic  =      -0.52552274 hartree =    -329.77049929 kcal/mol
 G_cavitation     =       0.00000000 hartree =       0.00000000 kcal/mol
 G_dispersion     =       0.00000000 hartree =       0.00000000 kcal/mol
 G_repulsion      =       0.00000000 hartree =       0.00000000 kcal/mol
 --------------------------------------------------
 Non-electrostatic Free Energy =       0.00000000 hartree =       0.00000000 kcal/mol
 Total                         =      -0.52552274 hartree =    -329.77049929 kcal/mol
 --------------------------------------------------
 SCF Energy (H0 + V/2)                       =   -3318.07259976 
 Solute Internal Energy (H0)                 =   -3317.54707702 
 Total Free Energy (H0 + V/2 + non-elec)     =   -3318.07259976 hartree
                                             = -2082121.98181472 kcal/mol
***********************************************************

 SCF   energy in the final basis set =    -3318.0725997596
 Total energy in the final basis set =    -3318.0725997596
 
 MAX_CIS_SUBSPACE fits in available memory
 Direct TDDFT/TDA calculation will be performed
 Exchange:     0.1000 Hartree-Fock + 0.9000 TPSS
 Correlation:  1.0000 TPSS
 Using SG-2 standard quadrature grid
 Adding PCM contribution to the XC response (LR-PCM)
 CIS energy converged when residual is below 10e- 6
 ---------------------------------------------------
 Iter    Rts Conv    Rts Left    Ttl Dev     Max Dev
 ---------------------------------------------------
   1         0         100      0.005097    0.000611
   2         0         100      0.001754    0.000111
   3        13          87      0.000577    0.000046
   4        69          31      0.000149    0.000018
   5        91           9      0.000049    0.000005
   6        99           1      0.000028    0.000001
   7       100           0      0.000026    0.000001    Roots Converged
 ---------------------------------------------------
 
 ---------------------------------------------------
         TDDFT/TDA Excitation Energies              
 ---------------------------------------------------

 Excited state   1: excitation energy (eV) =    1.9499
 Total energy for state  1:                 -3318.00094353 au
    <S**2>     :  8.7840
    Trans. Mom.: -0.0397 X   0.0291 Y  -0.0278 Z
    Strength   :     0.0001528120
    D(  159) --> S(    1) amplitude =  0.9832 beta

 Excited state   2: excitation energy (eV) =    2.1619
 Total energy for state  2:                 -3317.99315126 au
    <S**2>     :  8.7808
    Trans. Mom.: -0.1885 X   0.0821 Y  -0.0428 Z
    Strength   :     0.0023352345
    D(  158) --> S(    1) amplitude =  0.9572 beta

 Excited state   3: excitation energy (eV) =    2.2271
 Total energy for state  3:                 -3317.99075375 au
    <S**2>     :  8.7768
    Trans. Mom.:  0.7026 X  -0.0645 Y   0.0322 Z
    Strength   :     0.0272175268
    D(  159) --> S(    2) amplitude =  0.9569 beta
    D(  159) --> S(    3) amplitude =  0.2018 beta

 Excited state   4: excitation energy (eV) =    2.3342
 Total energy for state  4:                 -3317.98681790 au
    <S**2>     :  8.7821
    Trans. Mom.: -0.3238 X  -0.1607 Y   0.0726 Z
    Strength   :     0.0077738245
    D(  158) --> S(    2) amplitude = -0.4252 beta
    D(  159) --> S(    2) amplitude = -0.1913 beta
    D(  159) --> S(    3) amplitude =  0.8566 beta

 Excited state   5: excitation energy (eV) =    2.5357
 Total energy for state  5:                 -3317.97941453 au
    <S**2>     :  8.7768
    Trans. Mom.:  0.6017 X  -0.1039 Y  -0.0011 Z
    Strength   :     0.0231595605
    D(  157) --> S(    3) amplitude = -0.1586 beta
    D(  158) --> S(    3) amplitude =  0.9572 beta

 Excited state   6: excitation energy (eV) =    2.6032
 Total energy for state  6:                 -3317.97693269 au
    <S**2>     :  8.7756
    Trans. Mom.:  0.1387 X  -0.7120 Y   0.4820 Z
    Strength   :     0.0483809688
    D(  157) --> S(    1) amplitude =  0.2707 beta
    D(  158) --> S(    2) amplitude =  0.7861 beta
    D(  159) --> S(    3) amplitude =  0.4250 beta

 Excited state   7: excitation energy (eV) =    2.6610
 Total energy for state  7:                 -3317.97480891 au
    <S**2>     :  8.7809
    Trans. Mom.: -0.0954 X   0.2268 Y  -0.1198 Z
    Strength   :     0.0048805025
    D(  154) --> S(    1) amplitude = -0.3467 beta
    D(  155) --> S(    1) amplitude = -0.2709 beta
    D(  157) --> S(    1) amplitude =  0.7708 beta
    D(  158) --> S(    1) amplitude =  0.1867 beta
    D(  158) --> S(    2) amplitude = -0.2734 beta

 Excited state   8: excitation energy (eV) =    2.8546
 Total energy for state  8:                 -3317.96769403 au
    <S**2>     :  8.7791
    Trans. Mom.: -0.1058 X  -0.2005 Y   0.0854 Z
    Strength   :     0.0041043858
    D(  154) --> S(    1) amplitude =  0.6782 beta
    D(  154) --> S(    2) amplitude =  0.2341 beta
    D(  155) --> S(    1) amplitude = -0.2881 beta
    D(  156) --> S(    1) amplitude =  0.2835 beta
    D(  157) --> S(    1) amplitude =  0.1968 beta
    D(  157) --> S(    2) amplitude = -0.3487 beta
    D(  157) --> S(    3) amplitude =  0.2268 beta

 Excited state   9: excitation energy (eV) =    2.9125
 Total energy for state  9:                 -3317.96556872 au
    <S**2>     :  8.7742
    Trans. Mom.: -0.0848 X  -0.0784 Y   0.0949 Z
    Strength   :     0.0015944047
    D(  154) --> S(    1) amplitude =  0.2362 beta
    D(  154) --> S(    3) amplitude = -0.2850 beta
    D(  155) --> S(    2) amplitude = -0.3175 beta
    D(  156) --> S(    2) amplitude =  0.1596 beta
    D(  157) --> S(    2) amplitude =  0.6980 beta
    D(  157) --> S(    3) amplitude =  0.3654 beta

 Excited state  10: excitation energy (eV) =    3.0405
 Total energy for state 10:                 -3317.96086489 au
    <S**2>     :  8.7715
    Trans. Mom.: -0.1719 X   0.1857 Y  -0.1246 Z
    Strength   :     0.0059285464
    D(  152) --> S(    2) amplitude =  0.1518 beta
    D(  154) --> S(    1) amplitude = -0.2791 beta
    D(  154) --> S(    2) amplitude =  0.7752 beta
    D(  155) --> S(    2) amplitude = -0.2006 beta
    D(  156) --> S(    2) amplitude =  0.2538 beta
    D(  157) --> S(    3) amplitude =  0.2135 beta

 Excited state  11: excitation energy (eV) =    3.0946
 Total energy for state 11:                 -3317.95887442 au
    <S**2>     :  8.7756
    Trans. Mom.:  0.0512 X   0.1292 Y  -0.1220 Z
    Strength   :     0.0025926550
    D(  154) --> S(    1) amplitude = -0.1799 beta
    D(  154) --> S(    2) amplitude = -0.3212 beta
    D(  154) --> S(    3) amplitude =  0.3309 beta
    D(  155) --> S(    2) amplitude =  0.1530 beta
    D(  155) --> S(    3) amplitude = -0.3745 beta
    D(  156) --> S(    3) amplitude =  0.2556 beta
    D(  157) --> S(    3) amplitude =  0.6243 beta

 Excited state  12: excitation energy (eV) =    3.1707
 Total energy for state 12:                 -3317.95607789 au
    <S**2>     :  8.7834
    Trans. Mom.:  0.0482 X  -0.0435 Y   0.0020 Z
    Strength   :     0.0003273575
    D(  150) --> S(    1) amplitude = -0.1573 beta
    D(  151) --> S(    1) amplitude = -0.2052 beta
    D(  154) --> S(    1) amplitude =  0.3184 beta
    D(  155) --> S(    1) amplitude =  0.6565 beta
    D(  156) --> S(    1) amplitude = -0.3662 beta
    D(  157) --> S(    1) amplitude =  0.4883 beta

 Excited state  13: excitation energy (eV) =    3.2152
 Total energy for state 13:                 -3317.95444285 au
    <S**2>     :  8.7836
    Trans. Mom.:  0.0143 X  -0.0013 Y  -0.0159 Z
    Strength   :     0.0000362579
    D(  155) --> S(    1) amplitude =  0.5260 beta
    D(  156) --> S(    1) amplitude =  0.8348 beta

 Excited state  14: excitation energy (eV) =    3.2163
 Total energy for state 14:                 -3317.95440431 au
    <S**2>     :  8.8002
    Trans. Mom.: -0.2310 X   0.0592 Y   0.0433 Z
    Strength   :     0.0046271912
    D(  158) --> S(    4) amplitude =  0.1599 beta
    D(  159) --> S(    4) amplitude =  0.9672 beta

 Excited state  15: excitation energy (eV) =    3.3249
 Total energy for state 15:                 -3317.95041065 au
    <S**2>     :  8.7765
    Trans. Mom.:  0.0382 X  -0.3716 Y   0.0351 Z
    Strength   :     0.0114658337
    D(  154) --> S(    2) amplitude =  0.1695 beta
    D(  154) --> S(    3) amplitude =  0.5608 beta
    D(  155) --> S(    3) amplitude = -0.1599 beta
    D(  156) --> S(    3) amplitude =  0.2173 beta
    D(  157) --> S(    2) amplitude =  0.4109 beta
    D(  157) --> S(    3) amplitude = -0.3021 beta
    D(  158) --> S(    4) amplitude = -0.2724 beta

 Excited state  16: excitation energy (eV) =    3.3853
 Total energy for state 16:                 -3317.94819064 au
    <S**2>     :  8.7794
    Trans. Mom.: -0.0311 X   0.1174 Y   0.0127 Z
    Strength   :     0.0012368598
    D(  151) --> S(    2) amplitude = -0.1694 beta
    D(  153) --> S(    1) amplitude = -0.1527 beta
    D(  154) --> S(    2) amplitude =  0.2981 beta
    D(  155) --> S(    2) amplitude =  0.6260 beta
    D(  156) --> S(    2) amplitude = -0.3045 beta
    D(  157) --> S(    2) amplitude =  0.3673 beta
    D(  158) --> S(    4) amplitude =  0.3674 beta

 Excited state  17: excitation energy (eV) =    3.3988
 Total energy for state 17:                 -3317.94769739 au
    <S**2>     :  8.7834
    Trans. Mom.: -0.0230 X   0.1003 Y  -0.0270 Z
    Strength   :     0.0009428250
    D(  150) --> S(    1) amplitude = -0.2142 beta
    D(  151) --> S(    1) amplitude = -0.3812 beta
    D(  153) --> S(    1) amplitude =  0.8031 beta
    D(  155) --> S(    1) amplitude = -0.2035 beta
    D(  158) --> S(    4) amplitude =  0.1705 beta

 Excited state  18: excitation energy (eV) =    3.4038
 Total energy for state 18:                 -3317.94751376 au
    <S**2>     :  8.7885
    Trans. Mom.: -0.1503 X  -0.0571 Y  -0.0127 Z
    Strength   :     0.0021693418
    D(  154) --> S(    3) amplitude =  0.2030 beta
    D(  155) --> S(    2) amplitude = -0.2366 beta
    D(  156) --> S(    2) amplitude =  0.2167 beta
    D(  158) --> S(    4) amplitude =  0.7261 beta
    D(  159) --> S(    5) amplitude =  0.4432 beta

 Excited state  19: excitation energy (eV) =    3.4199
 Total energy for state 19:                 -3317.94692077 au
    <S**2>     :  8.7754
    Trans. Mom.:  0.0329 X  -0.0238 Y  -0.0040 Z
    Strength   :     0.0001393322
    D(  155) --> S(    2) amplitude =  0.5169 beta
    D(  156) --> S(    2) amplitude =  0.8368 beta

 Excited state  20: excitation energy (eV) =    3.4476
 Total energy for state 20:                 -3317.94590219 au
    <S**2>     :  8.7831
    Trans. Mom.: -0.0079 X  -0.0342 Y   0.0254 Z
    Strength   :     0.0001588364
    D(  151) --> S(    1) amplitude = -0.1965 beta
    D(  152) --> S(    1) amplitude =  0.9554 beta
    D(  154) --> S(    1) amplitude = -0.1940 beta

 Excited state  21: excitation energy (eV) =    3.4635
 Total energy for state 21:                 -3317.94531980 au
    <S**2>     :  8.7838
    Trans. Mom.: -0.0647 X   0.0275 Y   0.0233 Z
    Strength   :     0.0004654412
    D(  150) --> S(    1) amplitude =  0.2632 beta
    D(  151) --> S(    1) amplitude =  0.5568 beta
    D(  153) --> S(    1) amplitude =  0.4171 beta
    D(  158) --> S(    4) amplitude = -0.2503 beta
    D(  159) --> S(    5) amplitude =  0.5436 beta

 Excited state  22: excitation energy (eV) =    3.4659
 Total energy for state 22:                 -3317.94522871 au
    <S**2>     :  8.7818
    Trans. Mom.: -0.1481 X   0.0835 Y   0.0263 Z
    Strength   :     0.0025115922
    D(  151) --> S(    1) amplitude = -0.4587 beta
    D(  153) --> S(    1) amplitude = -0.3257 beta
    D(  158) --> S(    4) amplitude = -0.2583 beta
    D(  159) --> S(    5) amplitude =  0.6794 beta

 Excited state  23: excitation energy (eV) =    3.4987
 Total energy for state 23:                 -3317.94402485 au
    <S**2>     :  8.7829
    Trans. Mom.: -0.0145 X  -0.0729 Y   0.0015 Z
    Strength   :     0.0004736689
    D(  150) --> S(    1) amplitude =  0.8375 beta
    D(  151) --> S(    1) amplitude = -0.4419 beta

 Excited state  24: excitation energy (eV) =    3.5310
 Total energy for state 24:                 -3317.94283849 au
    <S**2>     :  8.7774
    Trans. Mom.:  0.0169 X  -0.1744 Y   0.0508 Z
    Strength   :     0.0028778261
    D(  150) --> S(    1) amplitude =  0.1692 beta
    D(  151) --> S(    3) amplitude = -0.1826 beta
    D(  154) --> S(    3) amplitude =  0.4089 beta
    D(  155) --> S(    3) amplitude =  0.6827 beta
    D(  156) --> S(    3) amplitude = -0.1933 beta
    D(  157) --> S(    3) amplitude =  0.3921 beta

 Excited state  25: excitation energy (eV) =    3.5608
 Total energy for state 25:                 -3317.94174433 au
    <S**2>     :  8.7769
    Trans. Mom.: -0.0228 X   0.0426 Y  -0.0057 Z
    Strength   :     0.0002062848
    D(  154) --> S(    3) amplitude = -0.1840 beta
    D(  155) --> S(    3) amplitude =  0.4379 beta
    D(  156) --> S(    3) amplitude =  0.8648 beta

 Excited state  26: excitation energy (eV) =    3.6025
 Total energy for state 26:                 -3317.94021129 au
    <S**2>     :  8.7756
    Trans. Mom.: -0.0198 X   0.0139 Y   0.0574 Z
    Strength   :     0.0003425613
    D(  150) --> S(    2) amplitude = -0.2403 beta
    D(  151) --> S(    2) amplitude = -0.3902 beta
    D(  153) --> S(    2) amplitude =  0.8132 beta
    D(  155) --> S(    2) amplitude = -0.2108 beta
    D(  156) --> S(    2) amplitude =  0.1506 beta

 Excited state  27: excitation energy (eV) =    3.6371
 Total energy for state 27:                 -3317.93894024 au
    <S**2>     :  8.7831
    Trans. Mom.:  0.0216 X  -0.0172 Y   0.0561 Z
    Strength   :     0.0003483532
    D(  145) --> S(    1) amplitude =  0.3124 beta
    D(  148) --> S(    1) amplitude = -0.6403 beta
    D(  149) --> S(    1) amplitude =  0.6459 beta

 Excited state  28: excitation energy (eV) =    3.6525
 Total energy for state 28:                 -3317.93837111 au
    <S**2>     :  8.7758
    Trans. Mom.:  0.0437 X   0.0164 Y  -0.0204 Z
    Strength   :     0.0002322120
    D(  151) --> S(    2) amplitude = -0.1694 beta
    D(  152) --> S(    2) amplitude =  0.9411 beta
    D(  154) --> S(    2) amplitude = -0.1972 beta
    D(  158) --> S(    5) amplitude =  0.1791 beta

 Excited state  29: excitation energy (eV) =    3.6545
 Total energy for state 29:                 -3317.93829989 au
    <S**2>     :  8.7873
    Trans. Mom.:  0.0883 X   0.0212 Y  -0.0677 Z
    Strength   :     0.0011490407
    D(  148) --> S(    1) amplitude = -0.1823 beta
    D(  149) --> S(    1) amplitude = -0.4456 beta
    D(  151) --> S(    2) amplitude =  0.1518 beta
    D(  152) --> S(    2) amplitude = -0.1569 beta
    D(  153) --> S(    2) amplitude =  0.2758 beta
    D(  158) --> S(    5) amplitude =  0.7357 beta

 Excited state  30: excitation energy (eV) =    3.6652
 Total energy for state 30:                 -3317.93790605 au
    <S**2>     :  8.7868
    Trans. Mom.:  0.1469 X  -0.0311 Y  -0.1095 Z
    Strength   :     0.0031017576
    D(  145) --> S(    1) amplitude = -0.2339 beta
    D(  148) --> S(    1) amplitude =  0.5212 beta
    D(  149) --> S(    1) amplitude =  0.5915 beta
    D(  151) --> S(    2) amplitude =  0.2191 beta
    D(  153) --> S(    2) amplitude =  0.1742 beta
    D(  158) --> S(    5) amplitude =  0.3850 beta

 Excited state  31: excitation energy (eV) =    3.6716
 Total energy for state 31:                 -3317.93766964 au
    <S**2>     :  8.7775
    Trans. Mom.: -0.0751 X  -0.0109 Y   0.0071 Z
    Strength   :     0.0005228900
    D(  150) --> S(    2) amplitude =  0.2550 beta
    D(  151) --> S(    2) amplitude =  0.7026 beta
    D(  152) --> S(    2) amplitude =  0.1912 beta
    D(  153) --> S(    2) amplitude =  0.4276 beta
    D(  154) --> S(    2) amplitude =  0.1512 beta
    D(  158) --> S(    5) amplitude = -0.3706 beta

 Excited state  32: excitation energy (eV) =    3.7063
 Total energy for state 32:                 -3317.93639713 au
    <S**2>     :  8.7749
    Trans. Mom.:  0.0147 X   0.0186 Y  -0.0227 Z
    Strength   :     0.0000981870
    D(  150) --> S(    2) amplitude =  0.8626 beta
    D(  151) --> S(    2) amplitude = -0.4212 beta

 Excited state  33: excitation energy (eV) =    3.7401
 Total energy for state 33:                 -3317.93515391 au
    <S**2>     :  8.7767
    Trans. Mom.: -0.0093 X  -0.0283 Y   0.0127 Z
    Strength   :     0.0000961260
    D(  150) --> S(    3) amplitude = -0.2435 beta
    D(  151) --> S(    3) amplitude = -0.3938 beta
    D(  153) --> S(    3) amplitude =  0.8176 beta
    D(  155) --> S(    3) amplitude = -0.2304 beta
    D(  156) --> S(    3) amplitude =  0.1717 beta

 Excited state  34: excitation energy (eV) =    3.7947
 Total energy for state 34:                 -3317.93314737 au
    <S**2>     :  8.7766
    Trans. Mom.:  0.0204 X  -0.0047 Y  -0.0003 Z
    Strength   :     0.0000407016
    D(  151) --> S(    3) amplitude = -0.2164 beta
    D(  152) --> S(    3) amplitude =  0.9508 beta
    D(  154) --> S(    3) amplitude = -0.1992 beta

 Excited state  35: excitation energy (eV) =    3.8096
 Total energy for state 35:                 -3317.93259808 au
    <S**2>     :  8.7780
    Trans. Mom.:  0.0065 X   0.0255 Y   0.0040 Z
    Strength   :     0.0000663152
    D(  150) --> S(    3) amplitude =  0.3046 beta
    D(  151) --> S(    3) amplitude =  0.7187 beta
    D(  152) --> S(    3) amplitude =  0.1879 beta
    D(  153) --> S(    3) amplitude =  0.5285 beta

 Excited state  36: excitation energy (eV) =    3.8385
 Total energy for state 36:                 -3317.93153733 au
    <S**2>     :  8.7761
    Trans. Mom.: -0.0856 X   0.0302 Y   0.0146 Z
    Strength   :     0.0007946661
    D(  145) --> S(    2) amplitude = -0.3674 beta
    D(  148) --> S(    2) amplitude =  0.6935 beta
    D(  149) --> S(    2) amplitude = -0.5220 beta
    D(  150) --> S(    2) amplitude = -0.1790 beta

 Excited state  37: excitation energy (eV) =    3.8438
 Total energy for state 37:                 -3317.93134178 au
    <S**2>     :  8.7791
    Trans. Mom.: -0.0523 X   0.0036 Y   0.0464 Z
    Strength   :     0.0004607376
    D(  145) --> S(    1) amplitude =  0.2747 beta
    D(  148) --> S(    1) amplitude =  0.1582 beta
    D(  150) --> S(    3) amplitude =  0.7857 beta
    D(  151) --> S(    3) amplitude = -0.4432 beta
    D(  152) --> S(    3) amplitude = -0.1552 beta

 Excited state  38: excitation energy (eV) =    3.8523
 Total energy for state 38:                 -3317.93103110 au
    <S**2>     :  8.7866
    Trans. Mom.: -0.0868 X  -0.0762 Y   0.1807 Z
    Strength   :     0.0043420875
    D(  145) --> S(    1) amplitude =  0.7550 beta
    D(  146) --> S(    1) amplitude = -0.1878 beta
    D(  148) --> S(    1) amplitude =  0.4044 beta
    D(  149) --> S(    2) amplitude =  0.2313 beta
    D(  150) --> S(    3) amplitude = -0.3238 beta

 Excited state  39: excitation energy (eV) =    3.8634
 Total energy for state 39:                 -3317.93062362 au
    <S**2>     :  8.7792
    Trans. Mom.:  0.0134 X  -0.0298 Y  -0.0671 Z
    Strength   :     0.0005266246
    D(  145) --> S(    2) amplitude = -0.2565 beta
    D(  148) --> S(    2) amplitude =  0.4353 beta
    D(  149) --> S(    2) amplitude =  0.8041 beta

 Excited state  40: excitation energy (eV) =    3.9232
 Total energy for state 40:                 -3317.92842624 au
    <S**2>     : 10.3721
    Trans. Mom.: -0.0147 X   0.0029 Y   0.0363 Z
    Strength   :     0.0001482051
    S(    3) --> V(    7) amplitude = -0.2147 alpha
    S(    3) --> V(    8) amplitude =  0.1564 alpha
    S(    5) --> V(    6) amplitude =  0.1822 alpha
    S(    5) --> V(    7) amplitude =  0.3835 alpha
    S(    5) --> V(    8) amplitude = -0.2783 alpha
    S(    5) --> V(   11) amplitude = -0.1688 alpha
    D(  158) --> V(    8) amplitude = -0.2081 beta
    D(  159) --> V(    6) amplitude =  0.1782 beta
    D(  159) --> V(    8) amplitude =  0.4104 beta
    D(  159) --> V(   11) amplitude = -0.2452 beta

 Excited state  41: excitation energy (eV) =    3.9336
 Total energy for state 41:                 -3317.92804138 au
    <S**2>     : 10.4442
    Trans. Mom.:  0.0227 X  -0.0300 Y  -0.0417 Z
    Strength   :     0.0003042128
    S(    4) --> V(    2) amplitude =  0.3225 alpha
    S(    4) --> V(    4) amplitude =  0.1980 alpha
    S(    4) --> V(    5) amplitude =  0.3039 alpha
    S(    4) --> V(    6) amplitude = -0.3701 alpha
    S(    4) --> V(    7) amplitude =  0.1852 alpha
    D(  158) --> V(    6) amplitude =  0.2819 beta
    D(  158) --> V(    7) amplitude =  0.2627 beta
    D(  159) --> V(    6) amplitude =  0.2230 beta
    D(  159) --> V(    7) amplitude =  0.2278 beta

 Excited state  42: excitation energy (eV) =    3.9659
 Total energy for state 42:                 -3317.92685610 au
    <S**2>     :  8.8075
    Trans. Mom.:  0.0783 X  -0.0649 Y   0.0595 Z
    Strength   :     0.0013493109
    D(  143) --> S(    1) amplitude =  0.5472 beta
    D(  145) --> S(    1) amplitude = -0.1936 beta
    D(  147) --> S(    1) amplitude =  0.7389 beta

 Excited state  43: excitation energy (eV) =    3.9732
 Total energy for state 43:                 -3317.92658555 au
    <S**2>     :  8.7916
    Trans. Mom.: -0.0171 X  -0.0108 Y  -0.0122 Z
    Strength   :     0.0000542376
    D(  143) --> S(    1) amplitude = -0.2484 beta
    D(  144) --> S(    1) amplitude =  0.2581 beta
    D(  145) --> S(    1) amplitude =  0.1647 beta
    D(  146) --> S(    1) amplitude =  0.8251 beta
    D(  147) --> S(    1) amplitude =  0.3100 beta

 Excited state  44: excitation energy (eV) =    3.9807
 Total energy for state 44:                 -3317.92631353 au
    <S**2>     :  8.7847
    Trans. Mom.: -0.0037 X  -0.0123 Y   0.0189 Z
    Strength   :     0.0000511843
    D(  145) --> S(    3) amplitude =  0.2792 beta
    D(  148) --> S(    3) amplitude = -0.5907 beta
    D(  149) --> S(    3) amplitude =  0.6554 beta

 Excited state  45: excitation energy (eV) =    3.9989
 Total energy for state 45:                 -3317.92564253 au
    <S**2>     :  8.8105
    Trans. Mom.:  0.0244 X   0.0112 Y   0.0714 Z
    Strength   :     0.0005704021
    D(  141) --> S(    1) amplitude = -0.2045 beta
    D(  143) --> S(    1) amplitude =  0.5759 beta
    D(  144) --> S(    1) amplitude = -0.2596 beta
    D(  146) --> S(    1) amplitude =  0.4218 beta
    D(  147) --> S(    1) amplitude = -0.4715 beta

 Excited state  46: excitation energy (eV) =    4.0037
 Total energy for state 46:                 -3317.92546811 au
    <S**2>     :  8.7798
    Trans. Mom.: -0.0201 X   0.0396 Y  -0.0207 Z
    Strength   :     0.0002357944
    D(  145) --> S(    3) amplitude = -0.2726 beta
    D(  148) --> S(    3) amplitude =  0.5200 beta
    D(  149) --> S(    3) amplitude =  0.7201 beta

 Excited state  47: excitation energy (eV) =    4.0131
 Total energy for state 47:                 -3317.92512105 au
    <S**2>     :  8.8142
    Trans. Mom.: -0.0716 X   0.0431 Y   0.0408 Z
    Strength   :     0.0008500294
    D(  143) --> S(    1) amplitude = -0.2534 beta
    D(  144) --> S(    1) amplitude = -0.2721 beta
    D(  147) --> S(    1) amplitude =  0.2148 beta
    D(  148) --> S(    3) amplitude = -0.1948 beta
    D(  154) --> S(    4) amplitude = -0.3385 beta
    D(  155) --> S(    4) amplitude = -0.1962 beta
    D(  157) --> S(    4) amplitude =  0.6408 beta

 Excited state  48: excitation energy (eV) =    4.0405
 Total energy for state 48:                 -3317.92411364 au
    <S**2>     :  8.7809
    Trans. Mom.:  0.0658 X  -0.0224 Y  -0.0013 Z
    Strength   :     0.0004789326
    D(  141) --> S(    1) amplitude =  0.1509 beta
    D(  144) --> S(    1) amplitude = -0.1804 beta
    D(  145) --> S(    2) amplitude =  0.7298 beta
    D(  146) --> S(    2) amplitude = -0.1728 beta
    D(  148) --> S(    2) amplitude =  0.4433 beta
    D(  157) --> S(    4) amplitude = -0.1742 beta

 Excited state  49: excitation energy (eV) =    4.0711
 Total energy for state 49:                 -3317.92298775 au
    <S**2>     :  8.7797
    Trans. Mom.:  0.1113 X   0.0425 Y   0.0496 Z
    Strength   :     0.0016604134
    D(  141) --> S(    1) amplitude = -0.2890 beta
    D(  144) --> S(    1) amplitude =  0.6509 beta
    D(  145) --> S(    2) amplitude =  0.3156 beta
    D(  146) --> S(    1) amplitude = -0.1689 beta
    D(  148) --> S(    2) amplitude =  0.1731 beta
    D(  154) --> S(    4) amplitude = -0.2087 beta
    D(  154) --> S(    5) amplitude = -0.1998 beta
    D(  157) --> S(    4) amplitude =  0.2629 beta
    D(  157) --> S(    5) amplitude =  0.2796 beta

 Excited state  50: excitation energy (eV) =    4.0897
 Total energy for state 50:                 -3317.92230678 au
    <S**2>     :  8.7875
    Trans. Mom.: -0.0535 X  -0.1287 Y   0.1943 Z
    Strength   :     0.0057288306
    D(  141) --> S(    1) amplitude =  0.5922 beta
    D(  143) --> S(    1) amplitude =  0.3134 beta
    D(  143) --> S(    2) amplitude =  0.2601 beta
    D(  144) --> S(    1) amplitude =  0.4273 beta
    D(  157) --> S(    4) amplitude =  0.2359 beta
    D(  157) --> S(    5) amplitude = -0.2535 beta

 Excited state  51: excitation energy (eV) =    4.1436
 Total energy for state 51:                 -3317.92032390 au
    <S**2>     :  8.7820
    Trans. Mom.: -0.0910 X   0.0052 Y   0.0102 Z
    Strength   :     0.0008534476
    D(  141) --> S(    1) amplitude =  0.5631 beta
    D(  141) --> S(    2) amplitude = -0.2015 beta
    D(  154) --> S(    4) amplitude = -0.3187 beta
    D(  154) --> S(    5) amplitude = -0.3513 beta
    D(  157) --> S(    5) amplitude =  0.4301 beta

 Excited state  52: excitation energy (eV) =    4.1699
 Total energy for state 52:                 -3317.91935817 au
    <S**2>     :  8.7747
    Trans. Mom.:  0.1730 X  -0.1648 Y   0.0401 Z
    Strength   :     0.0059981695
    D(  141) --> S(    1) amplitude = -0.1557 beta
    D(  143) --> S(    2) amplitude =  0.4163 beta
    D(  145) --> S(    3) amplitude =  0.3284 beta
    D(  147) --> S(    2) amplitude =  0.5595 beta
    D(  148) --> S(    3) amplitude =  0.2277 beta
    D(  154) --> S(    4) amplitude = -0.3151 beta

 Excited state  53: excitation energy (eV) =    4.1785
 Total energy for state 53:                 -3317.91904219 au
    <S**2>     :  8.7757
    Trans. Mom.: -0.0620 X   0.1019 Y  -0.0791 Z
    Strength   :     0.0020962669
    D(  143) --> S(    2) amplitude = -0.2311 beta
    D(  144) --> S(    2) amplitude =  0.2496 beta
    D(  145) --> S(    2) amplitude =  0.2006 beta
    D(  146) --> S(    2) amplitude =  0.8198 beta
    D(  147) --> S(    2) amplitude =  0.3100 beta

 Excited state  54: excitation energy (eV) =    4.1873
 Total energy for state 54:                 -3317.91872061 au
    <S**2>     :  8.7753
    Trans. Mom.: -0.0005 X   0.0995 Y  -0.0444 Z
    Strength   :     0.0012171474
    D(  145) --> S(    3) amplitude = -0.5384 beta
    D(  146) --> S(    2) amplitude = -0.1738 beta
    D(  147) --> S(    2) amplitude =  0.6439 beta
    D(  148) --> S(    3) amplitude = -0.3329 beta
    D(  154) --> S(    4) amplitude =  0.1883 beta

 Excited state  55: excitation energy (eV) =    4.2019
 Total energy for state 55:                 -3317.91818376 au
    <S**2>     :  8.7781
    Trans. Mom.: -0.1187 X   0.1782 Y  -0.1327 Z
    Strength   :     0.0065313158
    D(  143) --> S(    2) amplitude = -0.2674 beta
    D(  144) --> S(    2) amplitude =  0.1689 beta
    D(  144) --> S(    3) amplitude = -0.1541 beta
    D(  145) --> S(    3) amplitude =  0.4870 beta
    D(  146) --> S(    2) amplitude = -0.3865 beta
    D(  147) --> S(    2) amplitude =  0.2366 beta
    D(  148) --> S(    3) amplitude =  0.2175 beta
    D(  154) --> S(    4) amplitude =  0.3511 beta
    D(  155) --> S(    4) amplitude = -0.1696 beta
    D(  156) --> S(    4) amplitude =  0.1596 beta

 Excited state  56: excitation energy (eV) =    4.2222
 Total energy for state 56:                 -3317.91743622 au
    <S**2>     :  8.7771
    Trans. Mom.:  0.0176 X   0.1238 Y   0.0050 Z
    Strength   :     0.0016212359
    D(  141) --> S(    2) amplitude = -0.2306 beta
    D(  142) --> S(    1) amplitude =  0.5476 beta
    D(  143) --> S(    2) amplitude =  0.4149 beta
    D(  147) --> S(    2) amplitude = -0.2143 beta
    D(  154) --> S(    4) amplitude =  0.3068 beta
    D(  154) --> S(    5) amplitude = -0.2752 beta
    D(  157) --> S(    5) amplitude =  0.1886 beta

 Excited state  57: excitation energy (eV) =    4.2394
 Total energy for state 57:                 -3317.91680429 au
    <S**2>     :  8.7849
    Trans. Mom.: -0.1471 X   0.1373 Y   0.0483 Z
    Strength   :     0.0044477864
    D(  141) --> S(    2) amplitude = -0.1638 beta
    D(  142) --> S(    1) amplitude =  0.6693 beta
    D(  143) --> S(    2) amplitude = -0.4010 beta
    D(  144) --> S(    2) amplitude =  0.2856 beta
    D(  146) --> S(    2) amplitude = -0.2355 beta
    D(  154) --> S(    4) amplitude = -0.2408 beta
    D(  154) --> S(    5) amplitude =  0.2187 beta

 Excited state  58: excitation energy (eV) =    4.2582
 Total energy for state 58:                 -3317.91611373 au
    <S**2>     :  8.7746
    Trans. Mom.:  0.0857 X  -0.0989 Y  -0.1025 Z
    Strength   :     0.0028816708
    D(  141) --> S(    2) amplitude = -0.2463 beta
    D(  142) --> S(    1) amplitude = -0.2220 beta
    D(  143) --> S(    2) amplitude =  0.2064 beta
    D(  144) --> S(    2) amplitude =  0.7658 beta
    D(  145) --> S(    3) amplitude = -0.1782 beta
    D(  147) --> S(    2) amplitude = -0.1543 beta
    D(  157) --> S(    5) amplitude = -0.2065 beta

 Excited state  59: excitation energy (eV) =    4.3128
 Total energy for state 59:                 -3317.91410798 au
    <S**2>     :  8.7748
    Trans. Mom.: -0.0701 X   0.0372 Y  -0.1379 Z
    Strength   :     0.0026761708
    D(  141) --> S(    2) amplitude =  0.6604 beta
    D(  142) --> S(    1) amplitude =  0.2101 beta
    D(  142) --> S(    2) amplitude =  0.2174 beta
    D(  143) --> S(    3) amplitude = -0.2575 beta
    D(  144) --> S(    2) amplitude =  0.2836 beta
    D(  147) --> S(    3) amplitude = -0.3462 beta
    D(  154) --> S(    5) amplitude = -0.1940 beta

 Excited state  60: excitation energy (eV) =    4.3190
 Total energy for state 60:                 -3317.91387898 au
    <S**2>     :  8.7769
    Trans. Mom.: -0.0200 X   0.0221 Y  -0.0261 Z
    Strength   :     0.0001657776
    D(  141) --> S(    2) amplitude =  0.1609 beta
    D(  143) --> S(    3) amplitude = -0.1717 beta
    D(  144) --> S(    3) amplitude =  0.1843 beta
    D(  145) --> S(    3) amplitude =  0.1750 beta
    D(  146) --> S(    3) amplitude =  0.7779 beta
    D(  147) --> S(    3) amplitude =  0.3939 beta
    D(  154) --> S(    5) amplitude = -0.2027 beta

 Excited state  61: excitation energy (eV) =    4.3259
 Total energy for state 61:                 -3317.91362540 au
    <S**2>     :  8.7768
    Trans. Mom.: -0.0617 X  -0.0034 Y  -0.0264 Z
    Strength   :     0.0004790931
    D(  141) --> S(    2) amplitude =  0.2407 beta
    D(  145) --> S(    3) amplitude = -0.1971 beta
    D(  146) --> S(    3) amplitude = -0.4561 beta
    D(  147) --> S(    3) amplitude =  0.7842 beta

 Excited state  62: excitation energy (eV) =    4.3907
 Total energy for state 62:                 -3317.91124513 au
    <S**2>     :  8.7818
    Trans. Mom.: -0.1268 X  -0.0374 Y  -0.0369 Z
    Strength   :     0.0020256723
    D(  140) --> S(    1) amplitude =  0.8149 beta
    D(  141) --> S(    3) amplitude = -0.2889 beta
    D(  142) --> S(    2) amplitude = -0.1890 beta
    D(  143) --> S(    2) amplitude = -0.1899 beta
    D(  143) --> S(    3) amplitude =  0.1506 beta

 Excited state  63: excitation energy (eV) =    4.3925
 Total energy for state 63:                 -3317.91117690 au
    <S**2>     :  8.7797
    Trans. Mom.: -0.0481 X   0.0320 Y  -0.0135 Z
    Strength   :     0.0003790286
    D(  141) --> S(    2) amplitude =  0.2668 beta
    D(  143) --> S(    3) amplitude =  0.6216 beta
    D(  144) --> S(    3) amplitude = -0.6107 beta
    D(  146) --> S(    3) amplitude =  0.2831 beta

 Excited state  64: excitation energy (eV) =    4.4056
 Total energy for state 64:                 -3317.91069773 au
    <S**2>     :  8.7754
    Trans. Mom.: -0.0156 X  -0.2394 Y   0.1443 Z
    Strength   :     0.0084618728
    D(  140) --> S(    1) amplitude = -0.1646 beta
    D(  142) --> S(    2) amplitude =  0.3885 beta
    D(  142) --> S(    3) amplitude = -0.2053 beta
    D(  143) --> S(    2) amplitude = -0.1846 beta
    D(  143) --> S(    3) amplitude =  0.4917 beta
    D(  144) --> S(    3) amplitude =  0.3417 beta
    D(  147) --> S(    3) amplitude = -0.2334 beta
    D(  154) --> S(    5) amplitude = -0.3828 beta
    D(  155) --> S(    5) amplitude =  0.1673 beta
    D(  156) --> S(    5) amplitude = -0.1673 beta
    D(  157) --> S(    5) amplitude = -0.1819 beta

 Excited state  65: excitation energy (eV) =    4.4500
 Total energy for state 65:                 -3317.90906708 au
    <S**2>     :  8.7900
    Trans. Mom.: -0.0855 X  -0.2542 Y   0.3146 Z
    Strength   :     0.0186367644
    D(  140) --> S(    1) amplitude =  0.2951 beta
    D(  141) --> S(    2) amplitude = -0.2705 beta
    D(  141) --> S(    3) amplitude =  0.2716 beta
    D(  142) --> S(    2) amplitude =  0.4634 beta
    D(  143) --> S(    3) amplitude = -0.3252 beta
    D(  144) --> S(    2) amplitude = -0.1895 beta
    D(  144) --> S(    3) amplitude = -0.4198 beta
    D(  157) --> S(    5) amplitude = -0.2511 beta

 Excited state  66: excitation energy (eV) =    4.4657
 Total energy for state 66:                 -3317.90848689 au
    <S**2>     :  9.2830
    Trans. Mom.:  0.0894 X   0.1452 Y  -0.0806 Z
    Strength   :     0.0038933736
    S(    5) --> V(    1) amplitude =  0.9045 alpha
    D(  141) --> S(    3) amplitude = -0.1711 beta
    D(  142) --> S(    2) amplitude =  0.2244 beta

 Excited state  67: excitation energy (eV) =    4.4765
 Total energy for state 67:                 -3317.90809219 au
    <S**2>     :  8.8594
    Trans. Mom.: -0.0999 X  -0.0456 Y  -0.1416 Z
    Strength   :     0.0035227708
    S(    5) --> V(    1) amplitude =  0.2595 alpha
    D(  141) --> S(    3) amplitude =  0.4966 beta
    D(  142) --> S(    2) amplitude = -0.3458 beta
    D(  154) --> S(    4) amplitude =  0.1726 beta
    D(  155) --> S(    4) amplitude =  0.4388 beta
    D(  156) --> S(    4) amplitude = -0.2291 beta
    D(  157) --> S(    4) amplitude =  0.3072 beta

 Excited state  68: excitation energy (eV) =    4.4862
 Total energy for state 68:                 -3317.90773608 au
    <S**2>     :  8.8149
    Trans. Mom.:  0.0150 X   0.2452 Y  -0.0969 Z
    Strength   :     0.0076655530
    D(  140) --> S(    1) amplitude =  0.1549 beta
    D(  142) --> S(    2) amplitude =  0.4836 beta
    D(  142) --> S(    3) amplitude =  0.3422 beta
    D(  143) --> S(    2) amplitude =  0.1656 beta
    D(  144) --> S(    3) amplitude =  0.2096 beta
    D(  154) --> S(    4) amplitude =  0.1759 beta
    D(  154) --> S(    5) amplitude =  0.2054 beta
    D(  155) --> S(    4) amplitude =  0.3813 beta
    D(  156) --> S(    4) amplitude = -0.2070 beta
    D(  157) --> S(    4) amplitude =  0.2887 beta
    D(  157) --> S(    5) amplitude =  0.2006 beta

 Excited state  69: excitation energy (eV) =    4.4977
 Total energy for state 69:                 -3317.90731099 au
    <S**2>     :  8.8736
    Trans. Mom.:  0.2081 X  -0.1705 Y   0.0895 Z
    Strength   :     0.0088579595
    D(  140) --> S(    1) amplitude = -0.1766 beta
    D(  141) --> S(    3) amplitude = -0.5509 beta
    D(  142) --> S(    3) amplitude = -0.3004 beta
    D(  143) --> S(    3) amplitude = -0.1547 beta
    D(  144) --> S(    3) amplitude = -0.2739 beta
    D(  154) --> S(    4) amplitude =  0.2115 beta
    D(  155) --> S(    4) amplitude =  0.3981 beta
    D(  157) --> S(    4) amplitude =  0.1712 beta
    D(  159) --> V(    1) amplitude = -0.2893 beta

 Excited state  70: excitation energy (eV) =    4.5086
 Total energy for state 70:                 -3317.90691318 au
    <S**2>     :  9.6580
    Trans. Mom.:  0.0354 X  -0.1657 Y   0.0698 Z
    Strength   :     0.0037085532
    D(  141) --> S(    3) amplitude = -0.2528 beta
    D(  159) --> V(    1) amplitude =  0.9020 beta
    D(  159) --> V(    4) amplitude = -0.1594 beta

 Excited state  71: excitation energy (eV) =    4.5193
 Total energy for state 71:                 -3317.90651725 au
    <S**2>     :  8.7823
    Trans. Mom.:  0.0112 X   0.0248 Y  -0.0329 Z
    Strength   :     0.0002015341
    D(  154) --> S(    4) amplitude = -0.1554 beta
    D(  155) --> S(    4) amplitude =  0.4694 beta
    D(  156) --> S(    4) amplitude =  0.8559 beta

 Excited state  72: excitation energy (eV) =    4.5413
 Total energy for state 72:                 -3317.90570998 au
    <S**2>     :  9.3089
    Trans. Mom.: -0.0044 X  -0.0329 Y   0.0029 Z
    Strength   :     0.0001235446
    S(    5) --> V(    2) amplitude =  0.4329 alpha
    S(    5) --> V(    3) amplitude =  0.7847 alpha
    S(    5) --> V(    4) amplitude = -0.2097 alpha

 Excited state  73: excitation energy (eV) =    4.5944
 Total energy for state 73:                 -3317.90375844 au
    <S**2>     :  8.7838
    Trans. Mom.:  0.0759 X   0.1110 Y  -0.0866 Z
    Strength   :     0.0028777080
    D(  139) --> S(    1) amplitude =  0.4485 beta
    D(  140) --> S(    2) amplitude =  0.5449 beta
    D(  142) --> S(    3) amplitude = -0.5279 beta
    D(  154) --> S(    5) amplitude =  0.1832 beta
    D(  157) --> S(    5) amplitude =  0.2331 beta

 Excited state  74: excitation energy (eV) =    4.5986
 Total energy for state 74:                 -3317.90360454 au
    <S**2>     :  9.3036
    Trans. Mom.:  0.0345 X  -0.0287 Y   0.0404 Z
    Strength   :     0.0004106628
    S(    5) --> V(    2) amplitude =  0.7307 alpha
    S(    5) --> V(    3) amplitude = -0.2270 alpha
    S(    5) --> V(    4) amplitude =  0.3612 alpha
    S(    5) --> V(    5) amplitude =  0.2045 alpha
    S(    5) --> V(    6) amplitude = -0.3748 alpha

 Excited state  75: excitation energy (eV) =    4.6334
 Total energy for state 75:                 -3317.90232425 au
    <S**2>     :  9.5482
    Trans. Mom.: -0.0507 X   0.0063 Y  -0.1015 Z
    Strength   :     0.0014652248
    S(    4) --> V(    1) amplitude =  0.9190 alpha
    S(    4) --> V(    4) amplitude = -0.1645 alpha
    S(    4) --> V(    6) amplitude =  0.1539 alpha

 Excited state  76: excitation energy (eV) =    4.6359
 Total energy for state 76:                 -3317.90223263 au
    <S**2>     :  9.8305
    Trans. Mom.:  0.0656 X  -0.0906 Y  -0.0497 Z
    Strength   :     0.0017015856
    D(  159) --> V(    2) amplitude =  0.9264 beta
    D(  159) --> V(    3) amplitude =  0.2515 beta

 Excited state  77: excitation energy (eV) =    4.6518
 Total energy for state 77:                 -3317.90164813 au
    <S**2>     :  8.9797
    Trans. Mom.: -0.1327 X   0.0984 Y   0.1320 Z
    Strength   :     0.0050965617
    S(    5) --> V(    2) amplitude = -0.2207 alpha
    S(    5) --> V(    3) amplitude =  0.2561 alpha
    S(    5) --> V(    4) amplitude =  0.4471 alpha
    D(  140) --> S(    2) amplitude = -0.4840 beta
    D(  142) --> S(    3) amplitude = -0.3269 beta
    D(  154) --> S(    5) amplitude =  0.2477 beta
    D(  155) --> S(    5) amplitude =  0.2696 beta
    D(  157) --> S(    5) amplitude =  0.2541 beta

 Excited state  78: excitation energy (eV) =    4.6615
 Total energy for state 78:                 -3317.90129241 au
    <S**2>     :  9.0937
    Trans. Mom.: -0.0253 X   0.0540 Y  -0.1254 Z
    Strength   :     0.0022020662
    S(    5) --> V(    2) amplitude = -0.2683 alpha
    S(    5) --> V(    3) amplitude =  0.2750 alpha
    S(    5) --> V(    4) amplitude =  0.5602 alpha
    S(    5) --> V(    5) amplitude =  0.2323 alpha
    D(  139) --> S(    1) amplitude =  0.2407 beta
    D(  140) --> S(    2) amplitude =  0.1659 beta
    D(  154) --> S(    5) amplitude = -0.2052 beta
    D(  155) --> S(    5) amplitude = -0.3482 beta
    D(  156) --> S(    5) amplitude =  0.1947 beta
    D(  157) --> S(    5) amplitude = -0.2864 beta

 Excited state  79: excitation energy (eV) =    4.6650
 Total energy for state 79:                 -3317.90116282 au
    <S**2>     :  8.8763
    Trans. Mom.: -0.0363 X   0.2595 Y  -0.0573 Z
    Strength   :     0.0082223012
    S(    5) --> V(    4) amplitude = -0.2200 alpha
    S(    5) --> V(    5) amplitude = -0.2284 alpha
    D(  139) --> S(    1) amplitude =  0.5467 beta
    D(  140) --> S(    2) amplitude = -0.5136 beta
    D(  155) --> S(    5) amplitude = -0.2369 beta
    D(  156) --> S(    5) amplitude =  0.2668 beta
    D(  157) --> S(    5) amplitude = -0.1680 beta

 Excited state  80: excitation energy (eV) =    4.6964
 Total energy for state 80:                 -3317.90001122 au
    <S**2>     :  9.7101
    Trans. Mom.: -0.0322 X   0.0615 Y   0.1378 Z
    Strength   :     0.0027385093
    D(  158) --> V(    1) amplitude = -0.2165 beta
    D(  159) --> V(    2) amplitude = -0.2630 beta
    D(  159) --> V(    3) amplitude =  0.8940 beta

 Excited state  81: excitation energy (eV) =    4.7033
 Total energy for state 81:                 -3317.89975538 au
    <S**2>     :  8.8151
    Trans. Mom.:  0.0564 X   0.0856 Y   0.0092 Z
    Strength   :     0.0012207753
    D(  139) --> S(    1) amplitude = -0.3850 beta
    D(  142) --> S(    3) amplitude = -0.1669 beta
    D(  151) --> S(    4) amplitude =  0.1567 beta
    D(  153) --> S(    4) amplitude = -0.3589 beta
    D(  156) --> S(    5) amplitude =  0.7032 beta

 Excited state  82: excitation energy (eV) =    4.7074
 Total energy for state 82:                 -3317.89960584 au
    <S**2>     :  8.8026
    Trans. Mom.:  0.0304 X   0.0061 Y  -0.0837 Z
    Strength   :     0.0009179969
    D(  150) --> S(    4) amplitude = -0.1667 beta
    D(  151) --> S(    4) amplitude = -0.2786 beta
    D(  153) --> S(    4) amplitude =  0.7696 beta
    D(  155) --> S(    4) amplitude = -0.1626 beta
    D(  156) --> S(    5) amplitude =  0.4216 beta

 Excited state  83: excitation energy (eV) =    4.7138
 Total energy for state 83:                 -3317.89936968 au
    <S**2>     :  9.2418
    Trans. Mom.: -0.2042 X  -0.0808 Y   0.0034 Z
    Strength   :     0.0055704321
    S(    5) --> V(    3) amplitude = -0.2789 alpha
    S(    5) --> V(    4) amplitude = -0.1842 alpha
    S(    5) --> V(    5) amplitude =  0.5883 alpha
    S(    5) --> V(    6) amplitude =  0.3343 alpha
    S(    5) --> V(    8) amplitude =  0.3280 alpha
    S(    5) --> V(    9) amplitude =  0.2264 alpha
    D(  139) --> S(    1) amplitude =  0.1916 beta
    D(  153) --> S(    4) amplitude = -0.2139 beta

 Excited state  84: excitation energy (eV) =    4.7265
 Total energy for state 84:                 -3317.89890274 au
    <S**2>     :  8.8504
    Trans. Mom.:  0.0112 X  -0.2512 Y   0.1192 Z
    Strength   :     0.0089683346
    S(    5) --> V(    5) amplitude = -0.1759 alpha
    D(  139) --> S(    1) amplitude =  0.3346 beta
    D(  140) --> S(    3) amplitude = -0.3236 beta
    D(  142) --> S(    3) amplitude =  0.2315 beta
    D(  155) --> S(    5) amplitude =  0.6326 beta
    D(  156) --> S(    5) amplitude =  0.1898 beta
    D(  159) --> V(    4) amplitude = -0.2044 beta

 Excited state  85: excitation energy (eV) =    4.7306
 Total energy for state 85:                 -3317.89875241 au
    <S**2>     :  9.6719
    Trans. Mom.:  0.0155 X  -0.0223 Y  -0.1522 Z
    Strength   :     0.0027695864
    D(  155) --> S(    5) amplitude =  0.1898 beta
    D(  158) --> V(    1) amplitude =  0.2058 beta
    D(  159) --> V(    1) amplitude =  0.1635 beta
    D(  159) --> V(    4) amplitude =  0.8521 beta
    D(  159) --> V(    5) amplitude =  0.2254 beta

 Excited state  86: excitation energy (eV) =    4.7503
 Total energy for state 86:                 -3317.89803049 au
    <S**2>     :  9.2560
    Trans. Mom.: -0.0848 X  -0.0156 Y   0.1068 Z
    Strength   :     0.0021906387
    S(    5) --> V(    2) amplitude =  0.2326 alpha
    S(    5) --> V(    3) amplitude = -0.1770 alpha
    S(    5) --> V(    4) amplitude =  0.3012 alpha
    S(    5) --> V(    5) amplitude = -0.4453 alpha
    S(    5) --> V(    6) amplitude =  0.5902 alpha
    S(    5) --> V(    7) amplitude = -0.1614 alpha
    S(    5) --> V(    8) amplitude =  0.2374 alpha
    D(  152) --> S(    4) amplitude = -0.2507 beta

 Excited state  87: excitation energy (eV) =    4.7549
 Total energy for state 87:                 -3317.89785904 au
    <S**2>     :  8.8124
    Trans. Mom.:  0.0394 X   0.0273 Y   0.0269 Z
    Strength   :     0.0003519256
    S(    5) --> V(    6) amplitude =  0.1607 alpha
    D(  152) --> S(    4) amplitude =  0.9133 beta
    D(  154) --> S(    4) amplitude = -0.1656 beta

 Excited state  88: excitation energy (eV) =    4.7669
 Total energy for state 88:                 -3317.89742105 au
    <S**2>     :  8.8299
    Trans. Mom.:  0.1417 X  -0.0508 Y   0.0437 Z
    Strength   :     0.0028701586
    D(  140) --> S(    3) amplitude =  0.6016 beta
    D(  142) --> S(    3) amplitude =  0.1963 beta
    D(  150) --> S(    4) amplitude =  0.1751 beta
    D(  151) --> S(    4) amplitude =  0.4804 beta
    D(  153) --> S(    4) amplitude =  0.2698 beta
    D(  154) --> S(    4) amplitude =  0.1551 beta
    D(  155) --> S(    5) amplitude =  0.2236 beta

 Excited state  89: excitation energy (eV) =    4.7743
 Total energy for state 89:                 -3317.89714800 au
    <S**2>     :  8.8173
    Trans. Mom.: -0.1505 X  -0.0196 Y   0.1021 Z
    Strength   :     0.0039157749
    D(  140) --> S(    3) amplitude = -0.4851 beta
    D(  150) --> S(    4) amplitude =  0.2128 beta
    D(  151) --> S(    4) amplitude =  0.6559 beta
    D(  152) --> S(    4) amplitude =  0.1769 beta
    D(  153) --> S(    4) amplitude =  0.3167 beta

 Excited state  90: excitation energy (eV) =    4.7867
 Total energy for state 90:                 -3317.89669142 au
    <S**2>     :  9.8007
    Trans. Mom.:  0.0934 X   0.1191 Y  -0.0711 Z
    Strength   :     0.0032780618
    D(  140) --> S(    3) amplitude =  0.1504 beta
    D(  158) --> V(    1) amplitude =  0.5544 beta
    D(  159) --> V(    3) amplitude =  0.1518 beta
    D(  159) --> V(    4) amplitude = -0.2716 beta
    D(  159) --> V(    5) amplitude =  0.5756 beta
    D(  159) --> V(    6) amplitude =  0.2521 beta

 Excited state  91: excitation energy (eV) =    4.7886
 Total energy for state 91:                 -3317.89662033 au
    <S**2>     :  9.3886
    Trans. Mom.:  0.0216 X  -0.0028 Y   0.0172 Z
    Strength   :     0.0000901856
    S(    3) --> V(    1) amplitude =  0.1781 alpha
    S(    5) --> V(    5) amplitude = -0.3094 alpha
    S(    5) --> V(    6) amplitude = -0.3670 alpha
    S(    5) --> V(    7) amplitude =  0.4447 alpha
    S(    5) --> V(    8) amplitude =  0.5027 alpha
    D(  158) --> V(    1) amplitude =  0.2864 beta

 Excited state  92: excitation energy (eV) =    4.8069
 Total energy for state 92:                 -3317.89595047 au
    <S**2>     :  9.2081
    Trans. Mom.: -0.0395 X  -0.0681 Y   0.0859 Z
    Strength   :     0.0015983819
    D(  150) --> S(    4) amplitude =  0.6756 beta
    D(  151) --> S(    4) amplitude = -0.2744 beta
    D(  158) --> V(    1) amplitude = -0.3708 beta
    D(  159) --> V(    5) amplitude =  0.4211 beta

 Excited state  93: excitation energy (eV) =    4.8098
 Total energy for state 93:                 -3317.89584150 au
    <S**2>     :  9.3319
    Trans. Mom.:  0.0869 X   0.0051 Y   0.0088 Z
    Strength   :     0.0009024936
    D(  150) --> S(    4) amplitude = -0.5689 beta
    D(  151) --> S(    4) amplitude =  0.2313 beta
    D(  158) --> V(    1) amplitude = -0.3885 beta
[...]
  1.8093   1.8120   1.8162   1.8195   1.8294   1.8323   1.8348   1.8408
  1.8429   1.8482   1.8497   1.8566   1.8602   1.8645   1.8662   1.8701
  1.8737   1.8783   1.8850   1.8862   1.8923   1.8973   1.9021   1.9086
  1.9101   1.9127   1.9153   1.9208   1.9286   1.9291   1.9352   1.9358
  1.9373   1.9473   1.9483   1.9558   1.9567   1.9605   1.9641   1.9675
  1.9709   1.9731   1.9793   1.9858   1.9931   1.9944   1.9967   2.0009
  2.0046   2.0052   2.0082   2.0100   2.0146   2.0168   2.0197   2.0249
  2.0290   2.0312   2.0353   2.0392   2.0472   2.0490   2.0519   2.0556
  2.0609   2.0671   2.0692   2.0749   2.0813   2.0824   2.0859   2.0907
  2.0939   2.0990   2.1022   2.1040   2.1060   2.1115   2.1124   2.1186
  2.1249   2.1262   2.1366   2.1386   2.1409   2.1464   2.1552   2.1564
  2.1612   2.1668   2.1693   2.1734   2.1775   2.1811   2.1899   2.1977
  2.2002   2.2033   2.2081   2.2119   2.2145   2.2227   2.2263   2.2294
  2.2337   2.2404   2.2442   2.2478   2.2526   2.2532   2.2603   2.2636
  2.2699   2.2720   2.2753   2.2799   2.2904   2.2947   2.2972   2.3006
  2.3049   2.3078   2.3152   2.3239   2.3298   2.3359   2.3392   2.3452
  2.3466   2.3530   2.3575   2.3654   2.3735   2.3781   2.3830   2.3891
  2.3925   2.3946   2.4031   2.4055   2.4064   2.4148   2.4180   2.4185
  2.4337   2.4362   2.4427   2.4444   2.4484   2.4518   2.4569   2.4673
  2.4720   2.4774   2.4795   2.4829   2.4929   2.4988   2.5046   2.5079
  2.5161   2.5195   2.5246   2.5272   2.5354   2.5378   2.5403   2.5466
  2.5509   2.5608   2.5653   2.5785   2.5870   2.5903   2.5946   2.6021
  2.6030   2.6085   2.6123   2.6186   2.6205   2.6235   2.6290   2.6396
  2.6496   2.6565   2.6595   2.6606   2.6693   2.6710   2.6800   2.6841
  2.7017   2.7091   2.7152   2.7170   2.7181   2.7283   2.7337   2.7382
  2.7497   2.7527   2.7590   2.7602   2.7669   2.7780   2.7846   2.7952
  2.7976   2.8032   2.8056   2.8181   2.8215   2.8356   2.8434   2.8467
  2.8562   2.8631   2.8727   2.8770   2.8901   2.9008   2.9021   2.9132
  2.9192   2.9208   2.9360   2.9470   2.9540   2.9714   2.9862   2.9958
  3.0060   3.0103   3.0196   3.0239   3.0319   3.0431   3.0560   3.0619
  3.0773   3.0902   3.0982   3.1021   3.1307   3.1345   3.1719   3.1832
  3.2028   3.2228   3.2362   3.2441   3.2471   3.2662   3.2961   3.3171
  3.3306   3.3514   3.3623   3.3956   3.4307   3.4400   3.4416   3.4509
  3.4545   3.4550   3.4633   3.4770   3.4826   3.4858   3.4872   3.4921
  3.5030   3.5060   3.5081   3.5136   3.5215   3.5286   3.5344   3.5367
  3.5454   3.5479   3.5526   3.5578   3.5621   3.5661   3.5708   3.5753
  3.5820   3.5837   3.5943   3.5996   3.6097   3.6136   3.6154   3.6338
  3.6358   3.6431   3.6516   3.6608   3.6730   3.6841   3.6904   3.7011
  3.7037   3.7124   3.7356   3.7383   3.7417   3.7565   3.7612   3.7648
  3.7723   3.7856   3.8085   3.8136   3.8227   3.8379   3.8404   3.8533
  3.8612   3.8836   3.9005   3.9124   3.9225   3.9436   3.9549   3.9611
  3.9755   3.9841   3.9910   4.0085   4.0274   4.0460   4.0623   4.0743
  4.1185   4.1241   4.1504   4.1884   4.1984   4.2076   4.2233   4.3462
  4.3685   4.4275   4.4870   4.5113   4.5813   4.7315
 
 Beta MOs
 -- Occupied --
******** -29.8762 -25.7191 -25.7178 -25.7167 -19.0521 -19.0503 -19.0492
-19.0480 -19.0338 -19.0275 -19.0249 -19.0218 -19.0140 -19.0140 -19.0111
-19.0092 -19.0091 -14.3362 -14.3335 -14.2670 -14.2659 -10.2131 -10.2093
-10.2066 -10.2045 -10.2045 -10.1995 -10.1984 -10.1651 -10.1560 -10.1536
-10.1445 -10.1444 -10.1264 -10.1198 -10.1146 -10.1143 -10.1105 -10.1097
-10.1082 -10.1038 -10.1036 -10.0986  -3.3396  -2.1070  -2.1053  -2.1034
 -1.0493  -1.0443  -1.0134  -1.0027  -1.0013  -0.9954  -0.9931  -0.9773
 -0.9729  -0.9324  -0.9155  -0.9148  -0.9146  -0.8854  -0.8821  -0.8253
 -0.8220  -0.7694  -0.7678  -0.7443  -0.7329  -0.7227  -0.7041  -0.6978
 -0.6876  -0.6662  -0.6553  -0.6182  -0.6084  -0.5873  -0.5672  -0.5633
 -0.5348  -0.5311  -0.5220  -0.5105  -0.5069  -0.5004  -0.4858  -0.4789
 -0.4751  -0.4724  -0.4689  -0.4581  -0.4546  -0.4487  -0.4474  -0.4459
 -0.4422  -0.4342  -0.4288  -0.4257  -0.4214  -0.4173  -0.4093  -0.4085
 -0.4044  -0.4014  -0.3950  -0.3925  -0.3907  -0.3856  -0.3838  -0.3827
 -0.3807  -0.3783  -0.3768  -0.3764  -0.3704  -0.3675  -0.3667  -0.3651
 -0.3597  -0.3526  -0.3509  -0.3501  -0.3468  -0.3430  -0.3395  -0.3338
 -0.3243  -0.3228  -0.3107  -0.3074  -0.3062  -0.3053  -0.3020  -0.2977
 -0.2942  -0.2908  -0.2800  -0.2753  -0.2672  -0.2648  -0.2579  -0.2560
 -0.2466  -0.2404  -0.2399  -0.2330  -0.2290  -0.2249  -0.2232  -0.2203
 -0.2199  -0.2170  -0.2120  -0.2114  -0.2066  -0.1908  -0.1800
 -- Virtual --
 -0.0851  -0.0776  -0.0724  -0.0373  -0.0301  -0.0041   0.0007   0.0011
  0.0029   0.0059   0.0081   0.0091   0.0113   0.0147   0.0175   0.0191
  0.0213   0.0238   0.0286   0.0303   0.0323   0.0329   0.0355   0.0382
  0.0413   0.0423   0.0452   0.0456   0.0474   0.0500   0.0526   0.0533
  0.0559   0.0577   0.0597   0.0611   0.0637   0.0665   0.0707   0.0717
  0.0727   0.0758   0.0761   0.0777   0.0795   0.0820   0.0848   0.0858
  0.0891   0.0906   0.0926   0.0945   0.0953   0.0977   0.0997   0.1009
  0.1034   0.1041   0.1055   0.1063   0.1088   0.1093   0.1107   0.1130
  0.1142   0.1149   0.1170   0.1176   0.1203   0.1208   0.1218   0.1231
  0.1240   0.1268   0.1277   0.1298   0.1329   0.1344   0.1374   0.1375
  0.1394   0.1419   0.1428   0.1439   0.1452   0.1475   0.1484   0.1492
  0.1505   0.1538   0.1544   0.1559   0.1567   0.1592   0.1616   0.1623
  0.1630   0.1647   0.1668   0.1678   0.1692   0.1708   0.1725   0.1739
  0.1760   0.1780   0.1795   0.1810   0.1819   0.1855   0.1862   0.1869
  0.1882   0.1898   0.1932   0.1938   0.1951   0.1970   0.1983   0.1986
  0.2008   0.2034   0.2060   0.2071   0.2078   0.2104   0.2117   0.2134
  0.2150   0.2170   0.2178   0.2194   0.2220   0.2239   0.2250   0.2265
  0.2283   0.2306   0.2317   0.2323   0.2346   0.2350   0.2372   0.2391
  0.2400   0.2430   0.2433   0.2447   0.2464   0.2475   0.2500   0.2507
  0.2514   0.2534   0.2553   0.2569   0.2582   0.2614   0.2620   0.2639
  0.2663   0.2671   0.2685   0.2705   0.2718   0.2733   0.2741   0.2762
  0.2780   0.2798   0.2810   0.2820   0.2834   0.2851   0.2859   0.2884
  0.2900   0.2912   0.2934   0.2957   0.2965   0.2978   0.2990   0.3002
  0.3005   0.3035   0.3052   0.3072   0.3086   0.3117   0.3141   0.3144
  0.3163   0.3170   0.3192   0.3228   0.3236   0.3255   0.3270   0.3278
  0.3291   0.3311   0.3329   0.3345   0.3358   0.3370   0.3379   0.3410
  0.3415   0.3436   0.3453   0.3464   0.3485   0.3503   0.3519   0.3534
  0.3549   0.3570   0.3581   0.3591   0.3596   0.3644   0.3653   0.3671
  0.3678   0.3697   0.3722   0.3736   0.3761   0.3776   0.3800   0.3817
  0.3837   0.3865   0.3886   0.3908   0.3926   0.3938   0.3947   0.3954
  0.3992   0.4006   0.4031   0.4047   0.4071   0.4101   0.4114   0.4119
  0.4153   0.4165   0.4188   0.4212   0.4222   0.4252   0.4264   0.4296
  0.4302   0.4318   0.4348   0.4393   0.4404   0.4419   0.4423   0.4438
  0.4472   0.4476   0.4525   0.4530   0.4559   0.4587   0.4605   0.4635
  0.4661   0.4668   0.4700   0.4706   0.4715   0.4769   0.4779   0.4788
  0.4807   0.4826   0.4854   0.4870   0.4878   0.4912   0.4922   0.4936
  0.4967   0.4994   0.5016   0.5031   0.5063   0.5084   0.5106   0.5122
  0.5161   0.5174   0.5204   0.5225   0.5244   0.5267   0.5283   0.5292
  0.5308   0.5326   0.5342   0.5363   0.5395   0.5420   0.5432   0.5456
  0.5474   0.5509   0.5531   0.5543   0.5579   0.5610   0.5616   0.5633
  0.5662   0.5683   0.5699   0.5701   0.5753   0.5777   0.5787   0.5813
  0.5829   0.5861   0.5870   0.5901   0.5906   0.5932   0.5969   0.5972
  0.5977   0.5990   0.6034   0.6045   0.6067   0.6084   0.6114   0.6137
  0.6175   0.6192   0.6203   0.6237   0.6241   0.6266   0.6280   0.6314
  0.6330   0.6352   0.6373   0.6397   0.6400   0.6422   0.6436   0.6475
  0.6527   0.6537   0.6555   0.6581   0.6613   0.6640   0.6655   0.6675
  0.6692   0.6716   0.6720   0.6734   0.6766   0.6813   0.6842   0.6866
  0.6888   0.6904   0.6908   0.6917   0.6943   0.6961   0.6988   0.6999
  0.7026   0.7042   0.7064   0.7086   0.7111   0.7132   0.7157   0.7216
  0.7241   0.7268   0.7289   0.7313   0.7324   0.7337   0.7353   0.7362
  0.7395   0.7407   0.7461   0.7487   0.7493   0.7521   0.7532   0.7536
  0.7570   0.7595   0.7623   0.7648   0.7672   0.7699   0.7745   0.7754
  0.7790   0.7805   0.7831   0.7845   0.7852   0.7880   0.7905   0.7923
  0.7953   0.7964   0.7987   0.8008   0.8044   0.8073   0.8108   0.8117
  0.8165   0.8182   0.8199   0.8219   0.8232   0.8260   0.8288   0.8315
  0.8364   0.8371   0.8407   0.8425   0.8436   0.8473   0.8507   0.8517
  0.8541   0.8547   0.8593   0.8611   0.8654   0.8675   0.8721   0.8733
  0.8741   0.8769   0.8804   0.8844   0.8864   0.8910   0.8917   0.8952
  0.8986   0.9024   0.9053   0.9069   0.9091   0.9107   0.9160   0.9190
  0.9219   0.9241   0.9280   0.9309   0.9364   0.9377   0.9402   0.9446
  0.9458   0.9495   0.9509   0.9575   0.9590   0.9617   0.9681   0.9712
  0.9723   0.9766   0.9771   0.9804   0.9832   0.9874   0.9919   0.9955
  0.9976   0.9988   1.0038   1.0067   1.0097   1.0131   1.0178   1.0211
  1.0242   1.0253   1.0257   1.0318   1.0364   1.0377   1.0409   1.0428
  1.0450   1.0480   1.0521   1.0551   1.0589   1.0601   1.0669   1.0708
  1.0732   1.0746   1.0756   1.0825   1.0880   1.0915   1.0958   1.0977
  1.0985   1.1020   1.1080   1.1098   1.1135   1.1175   1.1181   1.1270
  1.1278   1.1319   1.1366   1.1386   1.1421   1.1432   1.1497   1.1522
  1.1533   1.1572   1.1641   1.1668   1.1682   1.1744   1.1757   1.1770
  1.1827   1.1868   1.1894   1.1946   1.1982   1.2013   1.2062   1.2093
  1.2165   1.2188   1.2211   1.2251   1.2284   1.2295   1.2363   1.2392
  1.2401   1.2446   1.2456   1.2462   1.2536   1.2562   1.2589   1.2659
  1.2688   1.2712   1.2734   1.2770   1.2800   1.2822   1.2847   1.2914
  1.2947   1.2952   1.2990   1.3008   1.3070   1.3124   1.3164   1.3203
  1.3211   1.3279   1.3296   1.3350   1.3361   1.3374   1.3385   1.3477
  1.3520   1.3590   1.3618   1.3659   1.3735   1.3798   1.3838   1.3857
  1.3877   1.3913   1.3989   1.4033   1.4060   1.4085   1.4107   1.4121
  1.4169   1.4248   1.4269   1.4282   1.4333   1.4366   1.4408   1.4454
  1.4534   1.4556   1.4630   1.4646   1.4685   1.4720   1.4785   1.4842
  1.4895   1.4920   1.4956   1.5006   1.5016   1.5066   1.5095   1.5134
  1.5156   1.5196   1.5239   1.5283   1.5345   1.5360   1.5397   1.5442
  1.5478   1.5491   1.5556   1.5578   1.5630   1.5677   1.5714   1.5740
  1.5788   1.5823   1.5877   1.5895   1.5919   1.5951   1.6035   1.6084
  1.6117   1.6182   1.6218   1.6229   1.6254   1.6343   1.6390   1.6402
  1.6428   1.6481   1.6491   1.6555   1.6576   1.6602   1.6642   1.6672
  1.6713   1.6787   1.6802   1.6866   1.6900   1.6915   1.6954   1.7030
  1.7052   1.7086   1.7137   1.7169   1.7230   1.7247   1.7306   1.7315
  1.7347   1.7390   1.7426   1.7472   1.7483   1.7497   1.7535   1.7554
  1.7641   1.7659   1.7684   1.7723   1.7785   1.7841   1.7892   1.7916
  1.7938   1.7957   1.7983   1.8059   1.8064   1.8116   1.8142   1.8180
  1.8258   1.8340   1.8365   1.8380   1.8444   1.8485   1.8533   1.8536
  1.8601   1.8665   1.8670   1.8698   1.8755   1.8759   1.8807   1.8881
  1.8937   1.8966   1.9020   1.9060   1.9117   1.9132   1.9165   1.9171
  1.9233   1.9314   1.9315   1.9366   1.9373   1.9442   1.9500   1.9502
  1.9579   1.9603   1.9630   1.9669   1.9713   1.9728   1.9746   1.9827
  1.9886   1.9955   1.9967   1.9989   2.0036   2.0072   2.0086   2.0109
  2.0118   2.0162   2.0191   2.0229   2.0271   2.0323   2.0335   2.0373
  2.0434   2.0494   2.0516   2.0546   2.0570   2.0633   2.0686   2.0731
  2.0774   2.0839   2.0872   2.0880   2.0925   2.0958   2.1020   2.1043
  2.1081   2.1097   2.1136   2.1148   2.1213   2.1268   2.1284   2.1390
  2.1419   2.1436   2.1485   2.1573   2.1597   2.1642   2.1704   2.1720
  2.1791   2.1799   2.1834   2.1919   2.1995   2.2021   2.2060   2.2113
  2.2154   2.2165   2.2264   2.2284   2.2352   2.2360   2.2418   2.2463
  2.2495   2.2544   2.2552   2.2632   2.2671   2.2718   2.2771   2.2823
  2.2845   2.2944   2.2963   2.2993   2.3049   2.3085   2.3119   2.3198
  2.3262   2.3361   2.3386   2.3430   2.3471   2.3495   2.3564   2.3608
  2.3722   2.3759   2.3813   2.3862   2.3939   2.3957   2.3999   2.4064
  2.4113   2.4141   2.4179   2.4196   2.4218   2.4383   2.4387   2.4457
  2.4481   2.4501   2.4542   2.4583   2.4707   2.4760   2.4799   2.4816
  2.4856   2.4964   2.5039   2.5063   2.5100   2.5205   2.5212   2.5269
  2.5306   2.5377   2.5415   2.5436   2.5489   2.5531   2.5634   2.5668
  2.5808   2.5898   2.5921   2.5994   2.6038   2.6086   2.6123   2.6175
  2.6202   2.6237   2.6257   2.6340   2.6502   2.6515   2.6588   2.6635
  2.6678   2.6710   2.6792   2.6840   2.6897   2.7041   2.7128   2.7177
  2.7187   2.7236   2.7301   2.7354   2.7399   2.7522   2.7564   2.7603
  2.7642   2.7714   2.7792   2.7858   2.7982   2.7997   2.8063   2.8075
  2.8194   2.8232   2.8405   2.8482   2.8491   2.8594   2.8659   2.8756
  2.8798   2.8907   2.9028   2.9062   2.9161   2.9207   2.9252   2.9375
  2.9518   2.9564   2.9754   2.9904   3.0030   3.0112   3.0148   3.0260
  3.0296   3.0421   3.0523   3.0629   3.0719   3.0785   3.0952   3.1022
  3.1189   3.1333   3.1540   3.1774   3.1871   3.2047   3.2249   3.2380
  3.2482   3.2498   3.2723   3.3011   3.3209   3.3315   3.3524   3.3646
  3.3979   3.4313   3.4427   3.4460   3.4541   3.4549   3.4561   3.4651
  3.4792   3.4851   3.4880   3.4917   3.4953   3.5054   3.5077   3.5095
  3.5191   3.5249   3.5314   3.5367   3.5406   3.5487   3.5516   3.5584
  3.5652   3.5674   3.5720   3.5763   3.5812   3.5883   3.5918   3.5987
  3.6074   3.6130   3.6209   3.6252   3.6361   3.6453   3.6480   3.6603
  3.6685   3.6754   3.6865   3.6949   3.7073   3.7147   3.7213   3.7383
  3.7436   3.7585   3.7649   3.7728   3.7766   3.7834   3.8043   3.8183
  3.8226   3.8340   3.8478   3.8590   3.8620   3.8758   3.9034   3.9220
  3.9313   3.9458   3.9607   3.9643   3.9774   3.9869   3.9992   4.0060
  4.0318   4.0542   4.0753   4.0799   4.1017   4.1244   4.1433   4.1866
  4.2230   4.2611   4.2902   4.3108   4.4099   4.4738   4.4860   4.5288
  4.5802   4.6800   4.7425
 --------------------------------------------------------------
 
          Ground-State Mulliken Net Atomic Charges

     Atom                 Charge (a.u.)    Spin (a.u.)
  --------------------------------------------------------
      1 N                     0.631920       0.008586
      2 C                     0.637302      -0.000870
      3 H                    -0.343308      -0.000045
      4 N                     0.159219      -0.002369
      5 H                    -0.013306       0.000121
      6 C                     1.109323      -0.000028
      7 O                    -0.896070       0.000004
      8 C                     0.352991       0.004378
      9 O                    -0.873603       0.000134
     10 C                    -0.576919      -0.031708
     11 C                     0.788438       0.003219
     12 H                     0.040546      -0.000270
     13 H                     0.028006      -0.000155
     14 H                    -0.390658       0.000328
     15 C                     1.045936       0.003949
     16 H                    -0.372038       0.001735
     17 H                    -0.231118       0.001820
     18 C                    -0.560910       0.030959
     19 C                     1.015247      -0.005086
     20 C                     0.893419       0.004590
     21 H                    -0.291379       0.002012
     22 H                    -0.576341       0.001489
     23 C                     0.449304       0.005837
     24 O                    -0.895793      -0.000087
     25 N                     0.300661      -0.002863
     26 H                     0.101535       0.000491
     27 C                     1.065543       0.000015
     28 O                    -0.945463       0.000036
     29 N                     0.712722       0.021051
     30 C                    -0.605672      -0.013283
     31 C                     1.356243       0.001953
     32 H                    -0.310295       0.000591
     33 H                    -0.218940       0.000360
     34 H                    -0.078516      -0.000249
     35 C                     0.713895       0.000318
     36 H                    -0.502134       0.000577
     37 H                    -0.363849       0.001219
     38 C                     1.002219       0.000235
     39 H                    -0.282767       0.000488
     40 H                    -0.666515      -0.000811
     41 C                     0.942032      -0.003347
     42 H                    -0.519300       0.007443
     43 H                    -0.410553      -0.000126
     44 C                     0.706946       0.001069
     45 H                    -0.209290       0.000199
     46 H                    -0.364851       0.000086
     47 C                     0.559671      -0.000772
     48 H                    -0.456119      -0.000060
     49 C                     0.828189       0.002948
     50 H                    -0.373047      -0.000037
     51 H                    -0.334514      -0.000227
     52 C                     0.815264      -0.001520
     53 H                    -0.452219       0.002317
     54 H                    -0.431740       0.001196
     55 C                     0.952173      -0.002955
     56 H                    -0.648671      -0.003682
     57 H                    -0.312044       0.000348
     58 C                     0.457918       0.003805
     59 H                    -0.299051       0.000354
     60 H                    -0.403042       0.000170
     61 O                    -0.880923       0.000035
     62 O                    -0.902125       0.000026
     63 O                    -0.901854       0.213006
     64 Fe                    2.368875       4.160175
     65 O                    -0.888631       0.085362
     66 O                    -0.692346       0.180735
     67 O                    -0.683715       0.081435
     68 O                    -1.168619       0.140703
     69 O                    -0.906744       0.016576
     70 O                    -0.800546       0.076065
  --------------------------------------------------------
  Sum of atomic charges =    -3.000000
  Sum of spin   charges =     5.000000

 -----------------------------------------------------------------
                    Cartesian Multipole Moments
 -----------------------------------------------------------------
    Charge (ESU x 10^10)
               -14.4096
    Dipole Moment (Debye)
         X      -0.8626      Y      23.9874      Z      -4.9756
       Tot      24.5132
    Quadrupole Moments (Debye-Ang)
        XX    -493.4998     XY     -38.4442     YY    -321.6479
        XZ     -11.7558     YZ     -46.5114     ZZ    -329.4781
    Octopole Moments (Debye-Ang^2)
       XXX    -491.5358    XXY     704.9811    XYY     100.6614
       YYY     367.6639    XXZ     235.9803    XYZ     111.6207
       YYZ     100.5234    XZZ     136.3372    YZZ     111.9671
       ZZZ    -150.4592
    Hexadecapole Moments (Debye-Ang^3)
      XXXX  -26682.9739   XXXY    -437.5252   XXYY   -5226.7087
      XYYY    -840.1566   YYYY   -8052.8856   XXXZ    -354.9195
      XXYZ   -1075.6954   XYYZ    -413.1785   YYYZ    -560.9164
      XXZZ   -4158.1740   XYZZ    -350.8905   YYZZ   -2151.8041
      XZZZ      29.4620   YZZZ    -166.8158   ZZZZ   -4523.3903
 -----------------------------------------------------------------
 Total job time:  173291.62s(wall), 3117329.48s(cpu) 
 Sun Jun  9 17:42:35 2024

        *************************************************************
        *                                                           *
        *  Thank you very much for using Q-Chem.  Have a nice day.  *
        *                                                           *
        *************************************************************


