
Running Job 1 of 1 C_FeAB_C_ccL_3sextet_SfS_b3lypD3bj_ccpVDZ_pcmH2O_freq.in
qchem C_FeAB_C_ccL_3sextet_SfS_b3lypD3bj_ccpVDZ_pcmH2O_freq.in_4123488.0 /data/scratch/C_FeAB_C_ccL_3sextet_SfS_b3lypD3bj_ccpVDZ_pcmH2O_freq20240528225448/ 0
/opt/qchem/6.0.1/exe/qcprog.exe_s C_FeAB_C_ccL_3sextet_SfS_b3lypD3bj_ccpVDZ_pcmH2O_freq.in_4123488.0 /data/scratch/C_FeAB_C_ccL_3sextet_SfS_b3lypD3bj_ccpVDZ_pcmH2O_freq20240528225448/
                  Welcome to Q-Chem
     A Quantum Leap Into The Future Of Chemistry


 Q-Chem 6.0, Q-Chem, Inc., Pleasanton, CA (2022)

 E. Epifanovsky,  A. T. B. Gilbert,  Xintian Feng,  Joonho Lee,  Yuezhi Mao,  
 N. Mardirossian,  P. Pokhilko,  A. White,  M. Wormit,  M. P. Coons,  
 A. L. Dempwolff,  Zhengting Gan,  D. Hait,  P. R. Horn,  L. D. Jacobson,  
 I. Kaliman,  J. Kussmann,  A. W. Lange,  Ka Un Lao,  D. S. Levine,  Jie Liu,  
 S. C. McKenzie,  A. F. Morrison,  K. Nanda,  F. Plasser,  D. R. Rehn,  
 M. L. Vidal,  Zhi-Qiang You,  Ying Zhu,  B. Alam,  B. Albrecht,  
 A. Aldossary,  E. Alguire,  J. H. Andersen,  V. Athavale,  D. Barton,  
 K. Begam,  A. Behn,  N. Bellonzi,  Y. A. Bernard,  E. J. Berquist,  
 H. Burton,  A. Carreras,  K. Carter-Fenk,  Romit Chakraborty,  
 Chandrima Chakravarty,  Junhan Chen,  A. D. Chien,  K. D. Closser,  
 V. Cofer-Shabica,  L. Cunha,  S. Dasgupta,  Jia Deng,  M. de Wergifosse,  
 M. Diedenhofen,  Hainam Do,  S. Ehlert,  Po-Tung Fang,  S. Fatehi,  
 Qingguo Feng,  T. Friedhoff,  B. Ganoe,  J. Gayvert,  Qinghui Ge,  
 G. Gidofalvi,  M. Goldey,  J. Gomes,  C. Gonzalez-Espinoza,  S. Gulania,  
 A. Gunina,  J. A. Gyamfi,  M. W. D. Hanson-Heine,  P. H. P. Harbach,  
 A. W. Hauser,  M. F. Herbst,  M. Hernandez Vera,  M. Hodecker,  
 Z. C. Holden,  S. Houck,  Xunkun Huang,  Kerwin Hui,  B. C. Huynh,  
 K. Ikeda,  M. Ivanov,  Hyunjun Ji,  Zuxin Jin,  Hanjie Jiang,  B. Kaduk,  
 S. Kaehler,  R. Kang,  K. Khistyaev,  Jaehoon Kim,  Yongbin Kim,  
 P. Klunzinger,  Z. Koczor-Benda,  Joong Hoon Koh,  D. Kosenkov,  
 Saikiran Kotaru,  L. Koulias,  T. Kowalczyk,  C. M. Krauter,  K. Kue,  
 A. Kunitsa,  T. Kus,  A. Landau,  K. V. Lawler,  D. Lefrancois,  S. Lehtola,  
 Rain Li,  Shaozhi Li,  Yi-Pei Li,  Jiashu Liang,  M. Liebenthal,  
 Hung-Hsuan Lin,  You-Sheng Lin,  Fenglai Liu,  Kuan-Yu Liu,  
 M. Loipersberger,  A. Luenser,  C. Malbon,  A. Manjanath,  P. Manohar,  
 E. Mansoor,  S. F. Manzer,  Shan-Ping Mao,  A. V. Marenich,  T. Markovich,  
 S. Mason,  F. Matz,  S. A. Maurer,  P. F. McLaughlin,  M. F. S. J. Menger,  
 J.-M. Mewes,  S. A. Mewes,  P. Morgante,  Mohammad Mostafanejad,  
 J. W. Mullinax,  K. J. Oosterbaan,  G. Paran,  V. Parravicini,  
 Alexander C. Paul,  Suranjan K. Paul,  F. Pavosevic,  Zheng Pei,  S. Prager,  
 E. I. Proynov,  E. Ramos,  B. Rana,  A. E. Rask,  A. Rettig,  R. M. Richard,  
 F. Rob,  E. Rossomme,  T. Scheele,  M. Scheurer,  M. Schneider,  
 P. E. Schneider,  N. Sergueev,  S. M. Sharada,  Hengyuan Shen,  
 W. Skomorowski,  D. W. Small,  C. J. Stein,  Yingli Su,  Yu-Chuan Su,  
 E. J. Sundstrom,  Zhen Tao,  J. Thirman,  Hung-Yi Tsai,  T. Tsuchimochi,  
 N. M. Tubman,  C. Utku,  S. P. Veccham,  O. Vydrov,  J. Wenzel,  
 Jonathan Wong,  J. Witte,  A. Yamada,  Chou-Hsun Yang,  Kun Yao,  
 S. Yeganeh,  S. R. Yost,  A. Zech,  F. Zeller,  Igor Ying Zhang,  
 Xing Zhang,  Yu Zhang,  D. Zuev,  A. Aspuru-Guzik,  A. T. Bell,  
 N. A. Besley,  K. B. Bravaya,  B. R. Brooks,  D. Casanova,  Jeng-Da Chai,  
 Hsing-Ta Chen,  S. Coriani,  C. J. Cramer,  A. E. DePrince, III,  
 R. A. DiStasio Jr.,  A. Dreuw,  B. D. Dunietz,  T. R. Furlani,  
 W. A. Goddard III,  S. Grimme,  S. Hammes-Schiffer,  T. Head-Gordon,  
 W. J. Hehre,  Chao-Ping Hsu,  T.-C. Jagau,  Yousung Jung,  A. Klamt,  
 Jing Kong,  D. S. Lambrecht,  Xiangyuan Li,  WanZhen Liang,  N. J. Mayhall,  
 C. W. McCurdy,  J. B. Neaton,  T. Neudecker,  C. Ochsenfeld,  
 J. A. Parkhill,  R. Peverati,  V. A. Rassolov,  Haisheng Ren,  Yihan Shao,  
 L. V. Slipchenko,  R. P. Steele,  J. E. Subotnik,  A. J. W. Thom,  
 A. Tkatchenko,  D. G. Truhlar,  T. Van Voorhis,  Fan Wang,  
 T. A. Wesolowski,  K. B. Whaley,  H. L. Woodcock III,  P. M. Zimmerman,  
 S. Faraji,  P. M. W. Gill,  M. Head-Gordon,  J. M. Herbert,  A. I. Krylov

 Contributors to earlier versions of Q-Chem not listed above: 
 R. D. Adamson,  B. Austin,  R. Baer,  J. Baker,  G. J. O. Beran,  
 K. Brandhorst,  S. T. Brown,  E. F. C. Byrd,  Arup K. Chakraborty,  
 G. K. L. Chan,  Chun-Min Chang,  Yunqing Chen,  C.-L. Cheng,  
 Siu Hung Chien,  D. M. Chipman,  D. L. Crittenden,  H. Dachsel,  
 R. J. Doerksen,  A. D. Dutoi,  R. G. Edgar,  J. Fosso-Tande,  
 L. Fusti-Molnar,  D. Ghosh,  A. Ghysels,  A. Golubeva-Zadorozhnaya,  
 J. Gonthier,  M. S. Gordon,  S. R. Gwaltney,  G. Hawkins,  J. E. Herr,  
 A. Heyden,  S. Hirata,  E. G. Hohenstein,  G. Kedziora,  F. J. Keil,  
 C. Kelley,  Jihan Kim,  R. A. King,  R. Z. Khaliullin,  P. P. Korambath,  
 W. Kurlancheek,  A. Laurent,  A. M. Lee,  M. S. Lee,  S. V. Levchenko,  
 Ching Yeh Lin,  D. Liotard,  E. Livshits,  R. C. Lochan,  I. Lotan,  
 L. A. Martinez-Martinez,  P. E. Maslen,  N. Nair,  D. P. O'Neill,  
 D. Neuhauser,  E. Neuscamman,  C. M. Oana,  R. Olivares-Amaya,  R. Olson,  
 T. M. Perrine,  B. Peters,  P. A. Pieniazek,  A. Prociuk,  Y. M. Rhee,  
 J. Ritchie,  M. A. Rohrdanz,  E. Rosta,  N. J. Russ,  H. F. Schaefer III,  
 M. W. Schmidt,  N. E. Schultz,  S. Sharma,  N. Shenvi,  C. D. Sherrill,  
 A. C. Simmonett,  A. Sodt,  T. Stein,  D. Stuck,  K. S. Thanthiriwatte,  
 V. Vanovschi,  L. Vogt,  Tao Wang,  A. Warshel,  M. A. Watson,  
 C. F. Williams,  Q. Wu,  X. Xu,  Jun Yang,  W. Zhang,  Yan Zhao

   Please cite Q-Chem as follows:
  "Software for the frontiers of quantum chemistry:
   An overview of developments in the Q-Chem 5 package"
   J. Chem. Phys. 155, 084801 (2021)
   https://doi.org/10.1063/5.0055522 (open access)

 Q-Chem 6.0.2 for Intel X86 EM64T Linux

 Parts of Q-Chem use Armadillo 9.900.5 (Nocturnal Misbehaviour).
 http://arma.sourceforge.net/

 Q-Chem begins on Tue May 28 22:54:49 2024  

 Host: 
0

     Scratch files written to /data/scratch/C_FeAB_C_ccL_3sextet_SfS_b3lypD3bj_ccpVDZ_pcmH2O_freq20240528225448//
 Dec722 |scratch|qcdevops|jenkins|workspace|build_RNUM 8907   
 Processing $rem in /opt/qchem/6.0.1/config/preferences:
 Processing $rem in /home/sgardner/.qchemrc:
 Symmetry turned off for PCM/SM12/SMD calculation

 Checking the input file for inconsistencies... 	...done.

--------------------------------------------------------------
User input:
--------------------------------------------------------------
$molecule
-3 6
N   -2.4262102    2.5604723   -0.8388025
C   -4.3697264   -2.3336989   -0.1243507
H   -4.9163457   -2.9093987    0.6470413
N   -2.9499868   -2.3379094    0.2046549
H   -2.4124937   -2.8745561   -0.4769806
C   -4.5455961   -3.0993934   -1.4737688
O   -5.7154687   -3.1484993   -1.9280402
C   -2.4071864   -1.9391830    1.3721450
O   -3.0622167   -1.3505365    2.2496255
C   -2.0260630    3.5569212   -0.0511169
C   -2.8224130    4.8326616    0.0355603
H   -2.9682921    5.2877820   -0.9554896
H   -3.8154730    4.6506223    0.4749855
H   -2.2735848    5.5343202    0.6753001
C   -0.9430901   -2.2984130    1.5792450
H   -0.5813581   -2.9897818    0.8076472
H   -0.8907196   -2.8071863    2.5541622
C    0.0248566   -1.0904764    1.6136425
C   -0.4023025   -0.0945765    2.7302256
C    1.4595839   -1.5656434    1.9909156
H    1.4140664   -2.2467807    2.8538641
H    2.0406134   -0.6806518    2.2864484
C    2.1625088   -2.2635353    0.8394093
O    1.7302344   -3.3027351    0.3116678
N    3.2951585   -1.6595203    0.4289569
H    3.7112878   -0.9028188    0.9688634
C    5.5855270   -1.5076207   -0.4073526
O    6.4751314   -1.8720256   -1.2109804
N    2.3914871    2.0758288   -0.9324525
C    2.7142644    2.1492393    0.3542508
C    4.1437604    2.3318265    0.7774986
H    4.1514166    2.7719598    1.7833001
H    4.6598169    1.3558948    0.8110818
H    4.6994620    2.9843751    0.0899630
C    3.3172906    1.9925213   -2.0649954
H    2.7035038    2.2093245   -2.9495150
H    4.0716868    2.7879089   -1.9726642
C    3.9927289    0.6221881   -2.1631300
H    4.6786713    0.6320796   -3.0287325
H    4.6205966    0.4922398   -1.2721198
C    3.0007509   -0.5398420   -2.2649117
H    2.2018479   -0.3838117   -1.5239185
H    2.5126842   -0.5208691   -3.2557272
C    3.6132403   -1.9260634   -2.0320803
H    2.8324926   -2.6821713   -2.2133668
H    4.4345799   -2.1257699   -2.7395310
C    4.1798414   -2.1519367   -0.6100848
H    4.3115437   -3.2410287   -0.4841466
C   -4.6661962    1.4818041   -0.9598821
H   -4.7163975    1.7087111    0.1202045
H   -5.6686564    1.6954810   -1.3701588
C   -3.6718365    2.4648034   -1.5943758
H   -4.1047336    3.4700505   -1.6521166
H   -3.4091848    2.1495764   -2.6177236
C   -4.3069943    0.0039695   -1.1649159
H   -3.2225310   -0.1024074   -1.0432693
H   -4.5450688   -0.2942986   -2.2020456
C   -4.9985800   -0.9313343   -0.1757820
H   -4.9406598   -0.4949368    0.8330492
H   -6.0630384   -1.0627410   -0.4265266
O   -3.5035423   -3.6032774   -1.9812468
O    5.7053501   -0.6821135    0.5482107
O    0.0656825   -0.4509090    0.3732389
Fe   -0.0829581    1.4589670    0.3683627
O   -0.6582137    1.1066293    2.3136245
O   -1.6709869    1.4268675   -0.8297078
O   -0.9580370    3.4058589    0.6257068
O    1.0734615    1.8875961   -1.2350858
O   -0.4246347   -0.4524129    3.9146550
O    1.7841578    2.0491767    1.2237764
$end

$rem
BASIS  =  gen
DFT_D  =  D3_BJ
GUI  =  2
JOB_TYPE  =  Frequency
METHOD  =  B3LYP
SCF_CONVERGENCE  =  8
SOLVENT_METHOD  =  PCM
MEM_TOTAL  =  50000
$end

$pcm
THEORY  CPCM
$end

$solvent
DIELECTRIC  78.39
$end

$van_der_waals
26   2.44
$end

!----------------------------------------------------------------------
! Basis Set Exchange
! Basis set: cc-pVDZ
!----------------------------------------------------------------------

$rem
BASIS GEN
PURECART 11
$end

$basis
H     0
S   4   1.00
1.301000D+01           1.968500D-02
1.962000D+00           1.379770D-01
4.446000D-01           4.781480D-01
1.220000D-01           5.012400D-01
S   1   1.00
1.220000D-01           1.000000D+00
P   1   1.00
7.270000D-01           1.0000000
****
C     0
S   9   1.00
6.665000D+03           6.920000D-04
1.000000D+03           5.329000D-03
2.280000D+02           2.707700D-02
6.471000D+01           1.017180D-01
2.106000D+01           2.747400D-01
7.495000D+00           4.485640D-01
2.797000D+00           2.850740D-01
5.215000D-01           1.520400D-02
1.596000D-01          -3.191000D-03
S   9   1.00
6.665000D+03          -1.460000D-04
1.000000D+03          -1.154000D-03
2.280000D+02          -5.725000D-03
6.471000D+01          -2.331200D-02
2.106000D+01          -6.395500D-02
7.495000D+00          -1.499810D-01
2.797000D+00          -1.272620D-01
5.215000D-01           5.445290D-01
1.596000D-01           5.804960D-01
S   1   1.00
1.596000D-01           1.000000D+00
P   4   1.00
9.439000D+00           3.810900D-02
2.002000D+00           2.094800D-01
5.456000D-01           5.085570D-01
1.517000D-01           4.688420D-01
P   1   1.00
1.517000D-01           1.000000D+00
D   1   1.00
5.500000D-01           1.0000000
****
N     0
S   9   1.00
9.046000D+03           7.000000D-04
1.357000D+03           5.389000D-03
3.093000D+02           2.740600D-02
8.773000D+01           1.032070D-01
2.856000D+01           2.787230D-01
1.021000D+01           4.485400D-01
3.838000D+00           2.782380D-01
7.466000D-01           1.544000D-02
2.248000D-01          -2.864000D-03
S   9   1.00
9.046000D+03          -1.530000D-04
1.357000D+03          -1.208000D-03
3.093000D+02          -5.992000D-03
8.773000D+01          -2.454400D-02
2.856000D+01          -6.745900D-02
1.021000D+01          -1.580780D-01
3.838000D+00          -1.218310D-01
7.466000D-01           5.490030D-01
2.248000D-01           5.788150D-01
S   1   1.00
2.248000D-01           1.000000D+00
P   4   1.00
1.355000D+01           3.991900D-02
2.917000D+00           2.171690D-01
7.973000D-01           5.103190D-01
2.185000D-01           4.622140D-01
P   1   1.00
2.185000D-01           1.000000D+00
D   1   1.00
8.170000D-01           1.0000000
****
O     0
S   9   1.00
1.172000D+04           7.100000D-04
1.759000D+03           5.470000D-03
4.008000D+02           2.783700D-02
1.137000D+02           1.048000D-01
3.703000D+01           2.830620D-01
1.327000D+01           4.487190D-01
5.025000D+00           2.709520D-01
1.013000D+00           1.545800D-02
3.023000D-01          -2.585000D-03
S   9   1.00
1.172000D+04          -1.600000D-04
1.759000D+03          -1.263000D-03
4.008000D+02          -6.267000D-03
1.137000D+02          -2.571600D-02
3.703000D+01          -7.092400D-02
1.327000D+01          -1.654110D-01
5.025000D+00          -1.169550D-01
1.013000D+00           5.573680D-01
3.023000D-01           5.727590D-01
S   1   1.00
3.023000D-01           1.000000D+00
P   4   1.00
1.770000D+01           4.301800D-02
3.854000D+00           2.289130D-01
1.046000D+00           5.087280D-01
2.753000D-01           4.605310D-01
P   1   1.00
2.753000D-01           1.000000D+00
D   1   1.00
1.185000D+00           1.0000000
****
Fe     0
S   20   1.00
4.316265D+06           8.048803D-06
6.463424D+05           6.258306D-05
1.470897D+05           3.290239D-04
4.166152D+04           1.387355D-03
1.359077D+04           5.023256D-03
4.905750D+03           1.610140D-02
1.912746D+03           4.590034D-02
7.926043D+02           1.136154D-01
3.448065D+02           2.283869D-01
1.558999D+02           3.221159D-01
7.223091D+01           2.383661D-01
3.272506D+01           7.404667D-02
1.566762D+01           9.214197D-02
7.503483D+00           9.339790D-02
3.312223D+00           1.573965D-02
1.558471D+00          -4.186682D-04
6.839140D-01           5.376318D-05
1.467570D-01          -3.816654D-05
7.058300D-02           4.319603D-05
3.144900D-02          -3.401019D-06
S   20   1.00
4.316265D+06          -4.155954D-06
6.463424D+05          -3.231401D-05
1.470897D+05          -1.699525D-04
4.166152D+04          -7.171369D-04
1.359077D+04          -2.603625D-03
4.905750D+03          -8.399109D-03
1.912746D+03          -2.434109D-02
7.926043D+02          -6.251948D-02
3.448065D+02          -1.365929D-01
1.558999D+02          -2.312707D-01
7.223091D+01          -2.383734D-01
3.272506D+01           3.123837D-02
1.566762D+01           5.086818D-01
7.503483D+00           4.987695D-01
3.312223D+00           9.033552D-02
1.558471D+00          -6.005337D-03
6.839140D-01           2.312454D-04
1.467570D-01          -5.643680D-04
7.058300D-02           4.992260D-04
3.144900D-02          -1.015293D-04
S   20   1.00
4.316265D+06           9.532178D-07
6.463424D+05           7.414605D-06
1.470897D+05           3.898393D-05
4.166152D+04           1.647152D-04
1.359077D+04           5.985980D-04
4.905750D+03           1.942390D-03
1.912746D+03           5.687237D-03
7.926043D+02           1.501329D-02
3.448065D+02           3.452455D-02
1.558999D+02           6.495820D-02
7.223091D+01           7.716194D-02
3.272506D+01          -1.873411D-02
1.566762D+01          -3.009185D-01
7.503483D+00          -4.554661D-01
3.312223D+00           1.286463D-01
1.558471D+00           7.183316D-01
6.839140D-01           4.051743D-01
1.467570D-01           2.168227D-02
7.058300D-02          -8.343566D-03
3.144900D-02           3.658979D-03
S   20   1.00
4.316265D+06          -2.063008D-07
6.463424D+05          -1.604169D-06
1.470897D+05          -8.438437D-06
4.166152D+04          -3.563151D-05
1.359077D+04          -1.295998D-04
4.905750D+03          -4.201534D-04
1.912746D+03          -1.231954D-03
7.926043D+02          -3.248922D-03
3.448065D+02          -7.493717D-03
1.558999D+02          -1.410102D-02
7.223091D+01          -1.691600D-02
3.272506D+01           4.218996D-03
1.566762D+01           6.833810D-02
7.503483D+00           1.098201D-01
3.312223D+00          -4.009005D-02
1.558471D+00          -2.174739D-01
6.839140D-01          -2.465135D-01
1.467570D-01           2.731435D-01
7.058300D-02           5.748321D-01
3.144900D-02           3.012713D-01
S   20   1.00
4.316265D+06          -4.009367D-07
6.463424D+05          -3.189255D-06
1.470897D+05          -1.623079D-05
4.166152D+04          -7.157920D-05
1.359077D+04          -2.463958D-04
4.905750D+03          -8.544907D-04
1.912746D+03          -2.307593D-03
7.926043D+02          -6.728292D-03
3.448065D+02          -1.366165D-02
1.558999D+02          -3.062240D-02
7.223091D+01          -2.631137D-02
3.272506D+01          -9.760183D-03
1.566762D+01           1.801906D-01
7.503483D+00           1.529634D-01
3.312223D+00           5.505413D-02
1.558471D+00          -9.551364D-01
6.839140D-01           2.586813D-01
1.467570D-01           1.834049D+00
7.058300D-02          -9.333240D-01
3.144900D-02          -6.981605D-01
S   1   1.00
3.144900D-02           1.000000D+00
P   16   1.00
1.774569D+04           4.100000D-05
4.200721D+03           3.690000D-04
1.364429D+03           2.129000D-03
5.220806D+02           9.369000D-03
2.214595D+02           3.309700D-02
1.009096D+02           9.443100D-02
4.840115D+01           2.080770D-01
2.398536D+01           3.323330D-01
1.218250D+01           3.329870D-01
6.242298D+00           1.568430D-01
3.110944D+00           2.154900D-02
1.509958D+00          -2.095000D-03
7.108450D-01          -1.739000D-03
2.731900D-01          -3.000000D-04
1.042330D-01           2.900000D-05
3.829100D-02          -1.100000D-05
P   16   1.00
1.774569D+04          -1.500000D-05
4.200721D+03          -1.300000D-04
1.364429D+03          -7.510000D-04
5.220806D+02          -3.329000D-03
2.214595D+02          -1.191200D-02
1.009096D+02          -3.493300D-02
4.840115D+01          -7.998900D-02
2.398536D+01          -1.346360D-01
1.218250D+01          -1.385980D-01
6.242298D+00           3.027800D-02
3.110944D+00           3.332160D-01
1.509958D+00           4.561530D-01
7.108450D-01           2.850510D-01
2.731900D-01           4.614400D-02
1.042330D-01          -3.249000D-03
3.829100D-02           1.357000D-03
P   16   1.00
1.774569D+04           5.000000D-06
4.200721D+03           4.200000D-05
1.364429D+03           2.410000D-04
5.220806D+02           1.085000D-03
2.214595D+02           3.831000D-03
1.009096D+02           1.142300D-02
4.840115D+01           2.579200D-02
2.398536D+01           4.481800D-02
1.218250D+01           4.459800D-02
6.242298D+00          -1.117700D-02
3.110944D+00          -1.381340D-01
1.509958D+00          -1.882850D-01
7.108450D-01          -1.073990D-01
2.731900D-01           4.448630D-01
1.042330D-01           6.402390D-01
3.829100D-02           6.445700D-02
P   16   1.00
1.774569D+04           3.000000D-06
4.200721D+03           2.900000D-05
1.364429D+03           1.650000D-04
5.220806D+02           7.340000D-04
2.214595D+02           2.626000D-03
1.009096D+02           7.725000D-03
4.840115D+01           1.773300D-02
2.398536D+01           3.005500D-02
1.218250D+01           3.109400D-02
6.242298D+00          -1.004800D-02
3.110944D+00          -8.830600D-02
1.509958D+00          -1.298240D-01
7.108450D-01          -7.693700D-02
2.731900D-01           2.126610D-01
1.042330D-01           5.730610D-01
3.829100D-02           3.696510D-01
P   1   1.00
3.829100D-02           1.000000D+00
D   8   1.00
1.133440D+02           3.530000D-03
3.364140D+01           2.578400D-02
1.233100D+01           9.911900D-02
4.994780D+00           2.390730D-01
2.072800D+00           3.571990D-01
8.307530D-01           3.621880D-01
3.091780D-01           2.364610D-01
1.001300D-01           6.011800D-02
D   8   1.00
1.133440D+02          -3.890000D-03
3.364140D+01          -2.844200D-02
1.233100D+01          -1.124290D-01
4.994780D+00          -2.742570D-01
2.072800D+00          -3.155460D-01
8.307530D-01           5.710900D-02
3.091780D-01           5.636040D-01
1.001300D-01           3.846370D-01
D   1   1.00
1.001300D-01           1.000000D+00
F   2   1.00
3.224300D+00           4.222490D-01
7.758000D-01           7.714680D-01
****
$end



--------------------------------------------------------------
 Adding empirical dispersion correction 
 ----------------------------------------------------------------
 Doing -D3(BJ) with
 s6  =   1.00000
 s8  =   1.98890
 a1  =   0.39810
 a2  =   4.42110
 -D3 energy without 3body term =     -0.1699569054 hartrees
 ----------------------------------------------------------------
             Standard Nuclear Orientation (Angstroms)
    I     Atom           X                Y                Z
 ----------------------------------------------------------------
    1      N      -2.4262102000     2.5604723000    -0.8388025000
    2      C      -4.3697264000    -2.3336989000    -0.1243507000
    3      H      -4.9163457000    -2.9093987000     0.6470413000
    4      N      -2.9499868000    -2.3379094000     0.2046549000
    5      H      -2.4124937000    -2.8745561000    -0.4769806000
    6      C      -4.5455961000    -3.0993934000    -1.4737688000
    7      O      -5.7154687000    -3.1484993000    -1.9280402000
    8      C      -2.4071864000    -1.9391830000     1.3721450000
    9      O      -3.0622167000    -1.3505365000     2.2496255000
   10      C      -2.0260630000     3.5569212000    -0.0511169000
   11      C      -2.8224130000     4.8326616000     0.0355603000
   12      H      -2.9682921000     5.2877820000    -0.9554896000
   13      H      -3.8154730000     4.6506223000     0.4749855000
   14      H      -2.2735848000     5.5343202000     0.6753001000
   15      C      -0.9430901000    -2.2984130000     1.5792450000
   16      H      -0.5813581000    -2.9897818000     0.8076472000
   17      H      -0.8907196000    -2.8071863000     2.5541622000
   18      C       0.0248566000    -1.0904764000     1.6136425000
   19      C      -0.4023025000    -0.0945765000     2.7302256000
   20      C       1.4595839000    -1.5656434000     1.9909156000
   21      H       1.4140664000    -2.2467807000     2.8538641000
   22      H       2.0406134000    -0.6806518000     2.2864484000
   23      C       2.1625088000    -2.2635353000     0.8394093000
   24      O       1.7302344000    -3.3027351000     0.3116678000
   25      N       3.2951585000    -1.6595203000     0.4289569000
   26      H       3.7112878000    -0.9028188000     0.9688634000
   27      C       5.5855270000    -1.5076207000    -0.4073526000
   28      O       6.4751314000    -1.8720256000    -1.2109804000
   29      N       2.3914871000     2.0758288000    -0.9324525000
   30      C       2.7142644000     2.1492393000     0.3542508000
   31      C       4.1437604000     2.3318265000     0.7774986000
   32      H       4.1514166000     2.7719598000     1.7833001000
   33      H       4.6598169000     1.3558948000     0.8110818000
   34      H       4.6994620000     2.9843751000     0.0899630000
   35      C       3.3172906000     1.9925213000    -2.0649954000
   36      H       2.7035038000     2.2093245000    -2.9495150000
   37      H       4.0716868000     2.7879089000    -1.9726642000
   38      C       3.9927289000     0.6221881000    -2.1631300000
   39      H       4.6786713000     0.6320796000    -3.0287325000
   40      H       4.6205966000     0.4922398000    -1.2721198000
   41      C       3.0007509000    -0.5398420000    -2.2649117000
   42      H       2.2018479000    -0.3838117000    -1.5239185000
   43      H       2.5126842000    -0.5208691000    -3.2557272000
   44      C       3.6132403000    -1.9260634000    -2.0320803000
   45      H       2.8324926000    -2.6821713000    -2.2133668000
   46      H       4.4345799000    -2.1257699000    -2.7395310000
   47      C       4.1798414000    -2.1519367000    -0.6100848000
   48      H       4.3115437000    -3.2410287000    -0.4841466000
   49      C      -4.6661962000     1.4818041000    -0.9598821000
   50      H      -4.7163975000     1.7087111000     0.1202045000
   51      H      -5.6686564000     1.6954810000    -1.3701588000
   52      C      -3.6718365000     2.4648034000    -1.5943758000
   53      H      -4.1047336000     3.4700505000    -1.6521166000
   54      H      -3.4091848000     2.1495764000    -2.6177236000
   55      C      -4.3069943000     0.0039695000    -1.1649159000
   56      H      -3.2225310000    -0.1024074000    -1.0432693000
   57      H      -4.5450688000    -0.2942986000    -2.2020456000
   58      C      -4.9985800000    -0.9313343000    -0.1757820000
   59      H      -4.9406598000    -0.4949368000     0.8330492000
   60      H      -6.0630384000    -1.0627410000    -0.4265266000
   61      O      -3.5035423000    -3.6032774000    -1.9812468000
   62      O       5.7053501000    -0.6821135000     0.5482107000
   63      O       0.0656825000    -0.4509090000     0.3732389000
   64      Fe     -0.0829581000     1.4589670000     0.3683627000
   65      O      -0.6582137000     1.1066293000     2.3136245000
   66      O      -1.6709869000     1.4268675000    -0.8297078000
   67      O      -0.9580370000     3.4058589000     0.6257068000
   68      O       1.0734615000     1.8875961000    -1.2350858000
   69      O      -0.4246347000    -0.4524129000     3.9146550000
   70      O       1.7841578000     2.0491767000     1.2237764000
 ----------------------------------------------------------------
 Nuclear Repulsion Energy =        6061.29520771 hartrees
 There are      164 alpha and      159 beta electrons
 Requested basis set is non-standard
 There are 339 shells and 739 basis functions

 Total QAlloc Memory Limit  50000 MB
 Mega-Array Size       188 MB
 MEM_STATIC part       192 MB

 Using C-PCM dielectric factor f(eps) = (eps-1)/eps = 0.987243
No default van der Waals radius is available for Z = 26
	Found R = 2.4400 A in the $van_der_waals section
 Discretize the solute cavity surface with Lebedev spheres
	Using 110 Lebedev grid points for each H atom
	Using 194 Lebedev grid points for other atoms
	Atomic van der Waals radii (Bondi set) will be scaled by 1.20
 Using smooth SwiG surface discretization
 Remove points where switching function is < 1.0e-08
 Keep 4103 surface tesserae and discard 6957 interior tesserae
 Molecular Surface Area = 526.408 Angst**2

 ================ Generating on-the-fly SAD Guess ================
 Attempting to make child job directory: /data/scratch/C_FeAB_C_ccL_3sextet_SfS_b3lypD3bj_ccpVDZ_pcmH2O_freq20240528225448//Frg1/
 Attempting to make child job directory: /data/scratch/C_FeAB_C_ccL_3sextet_SfS_b3lypD3bj_ccpVDZ_pcmH2O_freq20240528225448//Frg2/
 Attempting to make child job directory: /data/scratch/C_FeAB_C_ccL_3sextet_SfS_b3lypD3bj_ccpVDZ_pcmH2O_freq20240528225448//Frg3/
 Attempting to make child job directory: /data/scratch/C_FeAB_C_ccL_3sextet_SfS_b3lypD3bj_ccpVDZ_pcmH2O_freq20240528225448//Frg4/
 Attempting to make child job directory: /data/scratch/C_FeAB_C_ccL_3sextet_SfS_b3lypD3bj_ccpVDZ_pcmH2O_freq20240528225448//Frg5/
 Creating input file /data/scratch/C_FeAB_C_ccL_3sextet_SfS_b3lypD3bj_ccpVDZ_pcmH2O_freq20240528225448/Frg1.input
 using default PutDataFrgm: nothing
 calling putenv with: QCSCRATCH=/data/scratch/C_FeAB_C_ccL_3sextet_SfS_b3lypD3bj_ccpVDZ_pcmH2O_freq20240528225448/ 
 Spawning Job For Fragment 0
 Done Job For Fragment 0
 calling putenv with: QCSCRATCH=/data/scratch 
 calling putenv with: QCTHREADS=20 
 Creating input file /data/scratch/C_FeAB_C_ccL_3sextet_SfS_b3lypD3bj_ccpVDZ_pcmH2O_freq20240528225448/Frg2.input
 using default PutDataFrgm: nothing
 calling putenv with: QCSCRATCH=/data/scratch/C_FeAB_C_ccL_3sextet_SfS_b3lypD3bj_ccpVDZ_pcmH2O_freq20240528225448/ 
 Spawning Job For Fragment 1
 Done Job For Fragment 1
 calling putenv with: QCSCRATCH=/data/scratch 
 calling putenv with: QCTHREADS=20 
 Creating input file /data/scratch/C_FeAB_C_ccL_3sextet_SfS_b3lypD3bj_ccpVDZ_pcmH2O_freq20240528225448/Frg3.input
 using default PutDataFrgm: nothing
 calling putenv with: QCSCRATCH=/data/scratch/C_FeAB_C_ccL_3sextet_SfS_b3lypD3bj_ccpVDZ_pcmH2O_freq20240528225448/ 
 Spawning Job For Fragment 2
 Done Job For Fragment 2
 calling putenv with: QCSCRATCH=/data/scratch 
 calling putenv with: QCTHREADS=20 
 Creating input file /data/scratch/C_FeAB_C_ccL_3sextet_SfS_b3lypD3bj_ccpVDZ_pcmH2O_freq20240528225448/Frg4.input
 using default PutDataFrgm: nothing
 calling putenv with: QCSCRATCH=/data/scratch/C_FeAB_C_ccL_3sextet_SfS_b3lypD3bj_ccpVDZ_pcmH2O_freq20240528225448/ 
 Spawning Job For Fragment 3
 Done Job For Fragment 3
 calling putenv with: QCSCRATCH=/data/scratch 
 calling putenv with: QCTHREADS=20 
 Creating input file /data/scratch/C_FeAB_C_ccL_3sextet_SfS_b3lypD3bj_ccpVDZ_pcmH2O_freq20240528225448/Frg5.input
 using default PutDataFrgm: nothing
 calling putenv with: QCSCRATCH=/data/scratch/C_FeAB_C_ccL_3sextet_SfS_b3lypD3bj_ccpVDZ_pcmH2O_freq20240528225448/ 
 Spawning Job For Fragment 4
 Done Job For Fragment 4
 calling putenv with: QCSCRATCH=/data/scratch 
 calling putenv with: QCTHREADS=20 
 Time for running child jobs:  CPU 2.95 s  wall 78.33 s
 A cutoff of  1.0D-12 yielded  45085 shell pairs
 There are    196217 function pairs (    217704 Cartesian)
 Smallest overlap matrix eigenvalue = 2.93E-04
 ============= Method Specific SAD Guess Constructed =============
 Guess from on-the-fly superposition of atomic densities
 Warning: Energy on first SCF cycle will be non-variational

 -----------------------------------------------------------------------
  General SCF calculation program by
  Eric Jon Sundstrom, Paul Horn, Yuezhi Mao, Dmitri Zuev, Alec White,
  David Stuck, Shaama M.S., Shane Yost, Joonho Lee, David Small,
  Daniel Levine, Susi Lehtola, Hugh Burton, Evgeny Epifanovsky,
  Bang C. Huynh
 -----------------------------------------------------------------------
 Exchange:     0.2000 Hartree-Fock + 0.0800 Slater + 0.7200 B88
 Correlation:  0.1900 VWN1RPA + 0.8100 LYP
 Using SG-1 standard quadrature grid
 Dispersion:   Grimme D3
 using 20 threads for integral computing
 -------------------------------------------------------
 OpenMP Integral computing Module                
 Release: version 1.0, May 2013, Q-Chem Inc. Pittsburgh 
 -------------------------------------------------------
 C-PCM solvent model [f = (eps-1)/eps], solve by matrix inversion
 A unrestricted SCF calculation will be
 performed using DIIS
 SCF converges when DIIS error is below 1.0e-08
 ---------------------------------------
  Cycle       Energy         DIIS error
 ---------------------------------------
    1   -3332.2122872488      1.59e-02  
    2   -3316.8013440871      2.20e-03  
    3   -3314.7653982283      4.10e-03  
    4   -3317.5290350055      1.60e-03  
    5   -3317.9929439079      2.52e-04  
    6   -3317.9909198395      3.02e-04  
    7   -3318.0102780585      7.56e-05  
    8   -3318.0116150708      3.56e-05  
    9   -3318.0119510355      1.74e-05  
   10   -3318.0120381316      7.49e-06  
   11   -3318.0120565606      3.46e-06  
   12   -3318.0120612345      1.92e-06  
   13   -3318.0120628870      6.94e-07  
   14   -3318.0120632252      4.61e-07  
   15   -3318.0120633337      2.23e-07  
   16   -3318.0120633526      1.30e-07  
   17   -3318.0120633577      4.98e-08  
   18   -3318.0120633585      2.44e-08  
   19   -3318.0120633590      1.26e-08  
   20   -3318.0120633585      4.72e-09  Convergence criterion met
 ---------------------------------------
 SCF time:   CPU 32153.63s  wall 2175.00s 
<S^2> =          8.758385780

************** Final PCM Free Energy Summary **************
 G_electrostatic  =      -0.52533405 hartree =    -329.65209103 kcal/mol
 G_cavitation     =       0.00000000 hartree =       0.00000000 kcal/mol
 G_dispersion     =       0.00000000 hartree =       0.00000000 kcal/mol
 G_repulsion      =       0.00000000 hartree =       0.00000000 kcal/mol
 --------------------------------------------------
 Non-electrostatic Free Energy =       0.00000000 hartree =       0.00000000 kcal/mol
 Total                         =      -0.52533405 hartree =    -329.65209103 kcal/mol
 --------------------------------------------------
 SCF Energy (H0 + V/2)                       =   -3318.01206336 
 Solute Internal Energy (H0)                 =   -3317.48672931 
 Total Free Energy (H0 + V/2 + non-elec)     =   -3318.01206336 hartree
                                             = -2082083.99464974 kcal/mol
***********************************************************

 SCF   energy in the final basis set =    -3318.0120633585
 Total energy in the final basis set =    -3318.0120633585
 
 --------------------------------------------------------------
 
                    Orbital Energies (a.u.)
 --------------------------------------------------------------
 
 Alpha MOs
 -- Occupied --
******** -30.1190 -25.9730 -25.9706 -25.9689 -19.1221 -19.1216 -19.1198
-19.1184 -19.0980 -19.0883 -19.0852 -19.0794 -19.0780 -19.0632 -19.0583
-19.0568 -19.0517 -14.4019 -14.3992 -14.3254 -14.3233 -10.2804 -10.2765
-10.2658 -10.2631 -10.2616 -10.2492 -10.2450 -10.2195 -10.2183 -10.2157
-10.1961 -10.1946 -10.1898 -10.1820 -10.1765 -10.1714 -10.1711 -10.1666
-10.1660 -10.1641 -10.1611 -10.1583  -3.6011  -2.3791  -2.3742  -2.3709
 -1.0763  -1.0708  -1.0285  -1.0123  -1.0089  -1.0035  -1.0012  -0.9994
 -0.9969  -0.9539  -0.9356  -0.9171  -0.9128  -0.8960  -0.8915  -0.8492
 -0.8456  -0.7863  -0.7847  -0.7606  -0.7486  -0.7392  -0.7216  -0.7157
 -0.7039  -0.6816  -0.6697  -0.6333  -0.6226  -0.6005  -0.5807  -0.5769
 -0.5459  -0.5436  -0.5395  -0.5299  -0.5186  -0.5124  -0.5047  -0.4998
 -0.4958  -0.4922  -0.4869  -0.4759  -0.4709  -0.4649  -0.4591  -0.4571
 -0.4527  -0.4493  -0.4383  -0.4374  -0.4359  -0.4286  -0.4269  -0.4247
 -0.4214  -0.4180  -0.4161  -0.4097  -0.4077  -0.4049  -0.4001  -0.3985
 -0.3967  -0.3951  -0.3934  -0.3909  -0.3889  -0.3859  -0.3835  -0.3800
 -0.3782  -0.3744  -0.3703  -0.3694  -0.3671  -0.3641  -0.3617  -0.3596
 -0.3572  -0.3535  -0.3493  -0.3472  -0.3444  -0.3346  -0.3293  -0.3209
 -0.3198  -0.3189  -0.3173  -0.3154  -0.3091  -0.3057  -0.3024  -0.2972
 -0.2806  -0.2803  -0.2681  -0.2535  -0.2461  -0.2411  -0.2395  -0.2354
 -0.2296  -0.2274  -0.2261  -0.2217  -0.2202  -0.2190  -0.2155  -0.2087
 -0.2059  -0.2047  -0.1986  -0.1933
 -- Virtual --
  0.0217   0.0251   0.0320   0.0368   0.0392   0.0601   0.0618   0.0680
  0.0698   0.0762   0.0811   0.0882   0.0911   0.0971   0.1011   0.1102
  0.1134   0.1144   0.1170   0.1195   0.1228   0.1250   0.1313   0.1372
  0.1392   0.1409   0.1472   0.1532   0.1587   0.1629   0.1656   0.1668
  0.1683   0.1738   0.1759   0.1829   0.1860   0.1909   0.1946   0.1958
  0.2015   0.2042   0.2107   0.2124   0.2132   0.2223   0.2276   0.2314
  0.2332   0.2406   0.2484   0.2520   0.2564   0.2599   0.2614   0.2685
  0.2705   0.2714   0.2729   0.2765   0.2840   0.2940   0.2967   0.2981
  0.3004   0.3093   0.3233   0.3253   0.3302   0.3384   0.3401   0.3565
  0.3611   0.3744   0.3752   0.3826   0.3882   0.3898   0.3996   0.4084
  0.4095   0.4179   0.4229   0.4314   0.4332   0.4384   0.4462   0.4484
  0.4511   0.4543   0.4657   0.4692   0.4757   0.4800   0.4843   0.4847
  0.4931   0.4943   0.4967   0.5088   0.5117   0.5192   0.5250   0.5307
  0.5351   0.5391   0.5449   0.5489   0.5513   0.5556   0.5594   0.5638
  0.5664   0.5681   0.5755   0.5802   0.5834   0.5882   0.5908   0.5980
  0.5994   0.6054   0.6081   0.6121   0.6126   0.6183   0.6208   0.6235
  0.6244   0.6266   0.6337   0.6372   0.6406   0.6413   0.6445   0.6463
  0.6479   0.6556   0.6602   0.6609   0.6623   0.6650   0.6688   0.6705
  0.6741   0.6764   0.6804   0.6805   0.6829   0.6884   0.6919   0.6933
  0.6952   0.7012   0.7028   0.7055   0.7104   0.7128   0.7205   0.7225
  0.7247   0.7298   0.7326   0.7365   0.7416   0.7465   0.7472   0.7606
  0.7635   0.7700   0.7735   0.7778   0.7808   0.7845   0.7921   0.7963
  0.8024   0.8080   0.8119   0.8140   0.8168   0.8257   0.8324   0.8445
  0.8533   0.8588   0.8651   0.8798   0.8815   0.8936   0.8949   0.9028
  0.9068   0.9128   0.9203   0.9260   0.9277   0.9343   0.9503   0.9528
  0.9624   0.9713   0.9782   0.9889   0.9967   1.0018   1.0141   1.0259
  1.0288   1.0355   1.0401   1.0518   1.0535   1.0640   1.0682   1.0706
  1.0755   1.0830   1.0908   1.0962   1.0999   1.1019   1.1068   1.1132
  1.1233   1.1280   1.1326   1.1403   1.1440   1.1489   1.1549   1.1582
  1.1639   1.1669   1.1740   1.1793   1.1802   1.1875   1.1892   1.1936
  1.1987   1.2042   1.2111   1.2171   1.2252   1.2299   1.2339   1.2398
  1.2410   1.2493   1.2539   1.2587   1.2650   1.2662   1.2749   1.2788
  1.2866   1.2921   1.2977   1.2986   1.3050   1.3102   1.3158   1.3234
  1.3284   1.3370   1.3412   1.3449   1.3497   1.3616   1.3626   1.3713
  1.3734   1.3827   1.3915   1.3962   1.3990   1.4062   1.4093   1.4158
  1.4229   1.4285   1.4362   1.4425   1.4452   1.4505   1.4556   1.4631
  1.4716   1.4817   1.4898   1.4993   1.5038   1.5140   1.5221   1.5246
  1.5315   1.5399   1.5406   1.5499   1.5565   1.5607   1.5640   1.5727
  1.5774   1.5863   1.5868   1.5900   1.5933   1.6025   1.6092   1.6171
  1.6188   1.6231   1.6294   1.6321   1.6346   1.6377   1.6393   1.6411
  1.6504   1.6531   1.6544   1.6577   1.6614   1.6734   1.6777   1.6803
  1.6831   1.6862   1.6880   1.6961   1.6977   1.7016   1.7046   1.7079
  1.7136   1.7174   1.7211   1.7254   1.7300   1.7318   1.7358   1.7400
  1.7439   1.7496   1.7515   1.7571   1.7597   1.7614   1.7649   1.7687
  1.7736   1.7829   1.7871   1.7908   1.7959   1.7995   1.8076   1.8095
  1.8122   1.8177   1.8208   1.8235   1.8268   1.8326   1.8369   1.8401
  1.8414   1.8469   1.8515   1.8564   1.8615   1.8680   1.8723   1.8803
  1.8830   1.8940   1.8949   1.9000   1.9042   1.9090   1.9162   1.9175
  1.9295   1.9407   1.9436   1.9530   1.9551   1.9611   1.9639   1.9763
  1.9834   1.9887   1.9918   1.9956   1.9992   2.0085   2.0152   2.0201
  2.0296   2.0400   2.0443   2.0524   2.0567   2.0595   2.0644   2.0719
  2.0834   2.0882   2.0918   2.1013   2.1096   2.1164   2.1185   2.1277
  2.1378   2.1389   2.1471   2.1517   2.1628   2.1685   2.1725   2.1781
  2.1823   2.1865   2.1937   2.1994   2.2022   2.2158   2.2217   2.2223
  2.2298   2.2308   2.2402   2.2491   2.2533   2.2681   2.2723   2.2768
  2.2849   2.2910   2.2942   2.3018   2.3060   2.3108   2.3155   2.3310
  2.3369   2.3383   2.3438   2.3503   2.3514   2.3632   2.3692   2.3773
  2.3883   2.3998   2.4049   2.4082   2.4186   2.4280   2.4372   2.4399
  2.4446   2.4623   2.4735   2.4739   2.4820   2.4928   2.4962   2.5034
  2.5070   2.5144   2.5183   2.5229   2.5237   2.5394   2.5432   2.5637
  2.5676   2.5743   2.5776   2.5894   2.5961   2.6019   2.6100   2.6226
  2.6442   2.6504   2.6715   2.6752   2.6758   2.6795   2.6842   2.6978
  2.6999   2.7049   2.7097   2.7121   2.7144   2.7190   2.7273   2.7342
  2.7352   2.7404   2.7475   2.7538   2.7582   2.7630   2.7673   2.7735
  2.7780   2.7809   2.7870   2.7908   2.7942   2.7962   2.8107   2.8227
  2.8257   2.8599   2.8913   2.9106   2.9179   2.9233   2.9415   2.9461
  2.9694   2.9728   2.9887   3.0127   3.0148   3.0173   3.0518   3.0663
  3.0832   3.0943   3.1044   3.1147   3.1179   3.1294   3.1435   3.1488
  3.1826   3.2039   3.2158   3.2170   3.2349   3.2363   3.2436   3.2447
  3.4016   3.4065   3.4096   3.4168   3.4191   3.4243   3.4410   3.4427
  3.4482   3.4733   3.4833   3.4960   3.5154   3.5200   3.5239   3.5384
  3.5507   3.5812   3.5876   3.6075   3.6223   3.7347   3.7632
 
 Beta MOs
 -- Occupied --
******** -30.0264 -25.8947 -25.8936 -25.8925 -19.1189 -19.1170 -19.1169
-19.1137 -19.0948 -19.0883 -19.0851 -19.0775 -19.0726 -19.0632 -19.0583
-19.0568 -19.0517 -14.4016 -14.3991 -14.3254 -14.3233 -10.2805 -10.2765
-10.2658 -10.2631 -10.2616 -10.2492 -10.2450 -10.2195 -10.2182 -10.2156
-10.1961 -10.1946 -10.1898 -10.1819 -10.1765 -10.1714 -10.1709 -10.1665
-10.1659 -10.1641 -10.1611 -10.1583  -3.3854  -2.1489  -2.1478  -2.1459
 -1.0713  -1.0663  -1.0250  -1.0123  -1.0088  -1.0012  -0.9976  -0.9969
 -0.9934  -0.9446  -0.9278  -0.9171  -0.9128  -0.8960  -0.8914  -0.8443
 -0.8409  -0.7859  -0.7842  -0.7584  -0.7482  -0.7381  -0.7206  -0.7145
 -0.7033  -0.6811  -0.6693  -0.6327  -0.6220  -0.5990  -0.5800  -0.5760
 -0.5453  -0.5405  -0.5371  -0.5247  -0.5159  -0.5090  -0.5018  -0.4937
 -0.4890  -0.4859  -0.4834  -0.4683  -0.4677  -0.4626  -0.4575  -0.4549
 -0.4518  -0.4445  -0.4374  -0.4354  -0.4326  -0.4275  -0.4223  -0.4204
 -0.4154  -0.4138  -0.4070  -0.4045  -0.4010  -0.3988  -0.3944  -0.3927
 -0.3916  -0.3883  -0.3876  -0.3821  -0.3796  -0.3764  -0.3744  -0.3726
 -0.3665  -0.3638  -0.3622  -0.3578  -0.3551  -0.3527  -0.3472  -0.3442
 -0.3347  -0.3333  -0.3232  -0.3198  -0.3187  -0.3172  -0.3145  -0.3095
 -0.3055  -0.3016  -0.2944  -0.2902  -0.2806  -0.2766  -0.2703  -0.2633
 -0.2541  -0.2410  -0.2408  -0.2365  -0.2300  -0.2276  -0.2255  -0.2216
 -0.2191  -0.2156  -0.2147  -0.2085  -0.2057  -0.2012  -0.1905
 -- Virtual --
 -0.0646  -0.0583  -0.0532  -0.0178  -0.0107   0.0255   0.0298   0.0323
  0.0375   0.0404   0.0606   0.0627   0.0685   0.0710   0.0767   0.0815
  0.0888   0.0914   0.0978   0.1017   0.1113   0.1143   0.1150   0.1176
  0.1203   0.1231   0.1255   0.1317   0.1375   0.1397   0.1412   0.1481
  0.1541   0.1592   0.1631   0.1658   0.1676   0.1694   0.1753   0.1773
  0.1838   0.1873   0.1912   0.1955   0.1964   0.2021   0.2053   0.2123
  0.2139   0.2145   0.2231   0.2312   0.2334   0.2346   0.2446   0.2496
  0.2533   0.2580   0.2610   0.2645   0.2710   0.2718   0.2746   0.2757
  0.2798   0.2853   0.2950   0.2978   0.3017   0.3029   0.3111   0.3251
  0.3340   0.3361   0.3432   0.3465   0.3634   0.3659   0.3774   0.3785
  0.3848   0.3915   0.3927   0.4023   0.4104   0.4122   0.4204   0.4253
  0.4321   0.4338   0.4411   0.4469   0.4497   0.4517   0.4548   0.4671
  0.4706   0.4773   0.4814   0.4855   0.4862   0.4946   0.4951   0.4973
  0.5099   0.5133   0.5214   0.5264   0.5322   0.5358   0.5397   0.5454
  0.5504   0.5521   0.5568   0.5597   0.5648   0.5674   0.5688   0.5767
  0.5813   0.5848   0.5888   0.5919   0.5988   0.5997   0.6061   0.6088
  0.6131   0.6137   0.6189   0.6214   0.6240   0.6254   0.6275   0.6342
  0.6383   0.6412   0.6420   0.6458   0.6473   0.6490   0.6566   0.6605
  0.6614   0.6627   0.6656   0.6698   0.6711   0.6753   0.6770   0.6808
  0.6817   0.6836   0.6893   0.6930   0.6940   0.6957   0.7017   0.7034
  0.7068   0.7113   0.7138   0.7209   0.7232   0.7257   0.7307   0.7351
  0.7378   0.7428   0.7472   0.7494   0.7614   0.7661   0.7709   0.7776
  0.7821   0.7830   0.7862   0.7949   0.7994   0.8064   0.8101   0.8142
  0.8163   0.8237   0.8276   0.8394   0.8465   0.8585   0.8624   0.8660
  0.8836   0.8872   0.8948   0.8998   0.9084   0.9090   0.9174   0.9227
  0.9271   0.9311   0.9367   0.9535   0.9549   0.9660   0.9742   0.9793
  0.9934   0.9996   1.0049   1.0169   1.0298   1.0311   1.0377   1.0412
  1.0527   1.0566   1.0654   1.0708   1.0727   1.0784   1.0864   1.0930
  1.0987   1.1032   1.1042   1.1084   1.1148   1.1249   1.1308   1.1340
  1.1411   1.1454   1.1509   1.1571   1.1593   1.1654   1.1692   1.1759
  1.1809   1.1826   1.1890   1.1934   1.1947   1.2013   1.2059   1.2149
  1.2181   1.2269   1.2326   1.2350   1.2414   1.2435   1.2509   1.2619
  1.2636   1.2676   1.2725   1.2774   1.2815   1.2906   1.2936   1.3003
  1.3012   1.3072   1.3128   1.3211   1.3263   1.3319   1.3427   1.3479
  1.3496   1.3538   1.3656   1.3697   1.3753   1.3793   1.3843   1.3959
  1.4019   1.4042   1.4079   1.4116   1.4190   1.4342   1.4377   1.4438
  1.4459   1.4479   1.4608   1.4647   1.4699   1.4773   1.4856   1.4985
  1.5018   1.5123   1.5205   1.5279   1.5329   1.5411   1.5446   1.5508
  1.5551   1.5609   1.5635   1.5661   1.5755   1.5797   1.5891   1.5911
  1.5929   1.6025   1.6116   1.6150   1.6217   1.6230   1.6251   1.6320
  1.6339   1.6370   1.6391   1.6450   1.6464   1.6529   1.6568   1.6604
  1.6630   1.6635   1.6777   1.6804   1.6816   1.6858   1.6888   1.6905
  1.6970   1.6990   1.7034   1.7075   1.7138   1.7179   1.7194   1.7218
  1.7279   1.7316   1.7342   1.7384   1.7427   1.7461   1.7510   1.7533
  1.7582   1.7615   1.7646   1.7676   1.7725   1.7762   1.7841   1.7891
  1.7922   1.7998   1.8035   1.8089   1.8113   1.8132   1.8193   1.8234
  1.8264   1.8282   1.8346   1.8400   1.8430   1.8446   1.8480   1.8545
  1.8573   1.8634   1.8707   1.8784   1.8819   1.8871   1.8958   1.9015
  1.9025   1.9051   1.9117   1.9174   1.9187   1.9349   1.9424   1.9469
  1.9568   1.9604   1.9650   1.9652   1.9809   1.9851   1.9898   1.9939
  1.9992   2.0021   2.0108   2.0178   2.0271   2.0321   2.0440   2.0498
  2.0542   2.0593   2.0604   2.0662   2.0778   2.0868   2.0899   2.0951
  2.1034   2.1115   2.1193   2.1207   2.1298   2.1384   2.1403   2.1481
  2.1536   2.1638   2.1719   2.1741   2.1802   2.1836   2.1875   2.1945
  2.2002   2.2035   2.2163   2.2234   2.2287   2.2316   2.2336   2.2408
  2.2518   2.2549   2.2697   2.2734   2.2788   2.2879   2.2927   2.2973
  2.3048   2.3072   2.3116   2.3172   2.3338   2.3379   2.3424   2.3462
  2.3512   2.3525   2.3671   2.3704   2.3783   2.3913   2.4008   2.4080
  2.4117   2.4207   2.4295   2.4380   2.4409   2.4466   2.4637   2.4749
  2.4756   2.4843   2.4944   2.4981   2.5048   2.5081   2.5171   2.5203
  2.5242   2.5299   2.5408   2.5450   2.5666   2.5685   2.5765   2.5792
  2.5913   2.5981   2.6030   2.6122   2.6274   2.6461   2.6552   2.6731
  2.6766   2.6797   2.6831   2.6937   2.7043   2.7090   2.7128   2.7151
  2.7166   2.7193   2.7226   2.7295   2.7385   2.7410   2.7477   2.7491
  2.7582   2.7637   2.7692   2.7700   2.7800   2.7823   2.7877   2.7915
  2.7946   2.8000   2.8031   2.8157   2.8277   2.8310   2.8770   2.9079
  2.9183   2.9214   2.9294   2.9505   2.9524   2.9848   3.0126   3.0146
  3.0222   3.0342   3.0710   3.0835   3.0939   3.1004   3.1114   3.1160
  3.1194   3.1257   3.1445   3.1512   3.2022   3.2154   3.2171   3.2224
  3.2386   3.2432   3.2445   3.2914   3.3207   3.4097   3.4133   3.4186
  3.4228   3.4249   3.4405   3.4431   3.4632   3.4748   3.4825   3.4936
  3.5059   3.5224   3.5238   3.5439   3.5684   3.5812   3.5876   3.6128
  3.6290   3.6937   3.7419   3.7733
 --------------------------------------------------------------
 
          Ground-State Mulliken Net Atomic Charges

     Atom                 Charge (a.u.)    Spin (a.u.)
  --------------------------------------------------------
      1 N                    -0.025233       0.011199
      2 C                    -0.014741       0.000011
      3 H                    -0.010759       0.000001
      4 N                    -0.092693      -0.000038
      5 H                     0.075444      -0.000011
      6 C                     0.092868      -0.000003
      7 O                    -0.449924       0.000008
      8 C                     0.131370       0.000056
      9 O                    -0.376350       0.000385
     10 C                     0.125988       0.000595
     11 C                     0.020665       0.003191
     12 H                     0.069820       0.000094
     13 H                     0.068492       0.000092
     14 H                     0.043965       0.000285
     15 C                     0.134694       0.004296
     16 H                    -0.008826       0.000147
     17 H                     0.001834       0.001326
     18 C                    -0.064249       0.003726
     19 C                     0.209905       0.004527
     20 C                     0.117295       0.007115
     21 H                     0.010057       0.001307
     22 H                     0.002325       0.000221
     23 C                     0.142484      -0.000064
     24 O                    -0.375072       0.000299
     25 N                    -0.088702      -0.000122
     26 H                     0.096839      -0.000081
     27 C                     0.107381       0.000003
     28 O                    -0.435339       0.000025
     29 N                    -0.024362       0.007923
     30 C                     0.126620       0.004074
     31 C                     0.002647       0.003290
     32 H                     0.040323       0.000178
     33 H                     0.072349       0.000248
     34 H                     0.050781       0.000521
     35 C                     0.140371       0.001607
     36 H                     0.025900       0.000258
     37 H                     0.034685       0.000906
     38 C                    -0.036852       0.000374
     39 H                     0.003066       0.000493
     40 H                     0.022487       0.000057
     41 C                    -0.042689      -0.000171
     42 H                     0.073754       0.001218
     43 H                    -0.008140      -0.000021
     44 C                     0.049218       0.000126
     45 H                    -0.014287      -0.000018
     46 H                    -0.018172      -0.000012
     47 C                    -0.010266      -0.000007
     48 H                    -0.009258       0.000006
     49 C                    -0.003022       0.000070
     50 H                     0.011464       0.000036
     51 H                     0.011701       0.000028
     52 C                     0.131759       0.001788
     53 H                     0.032946       0.001840
     54 H                     0.027506       0.000857
     55 C                    -0.032256       0.001219
     56 H                     0.035985       0.000302
     57 H                    -0.007697       0.000050
     58 C                     0.052630       0.000065
     59 H                    -0.014959      -0.000003
     60 H                    -0.020421       0.000111
     61 O                    -0.444439      -0.000001
     62 O                    -0.429812       0.000036
     63 O                    -0.495767       0.217807
     64 Fe                    0.559763       4.164319
     65 O                    -0.395196       0.090806
     66 O                    -0.440671       0.157093
     67 O                    -0.367287       0.071266
     68 O                    -0.443999       0.138352
     69 O                    -0.385613       0.018352
     70 O                    -0.370325       0.075965
  --------------------------------------------------------
  Sum of atomic charges =    -3.000000
  Sum of spin   charges =     5.000000

 -----------------------------------------------------------------
                    Cartesian Multipole Moments
 -----------------------------------------------------------------
    Charge (ESU x 10^10)
               -14.4096
    Dipole Moment (Debye)
         X      -0.0984      Y      23.0106      Z      -4.2742
       Tot      23.4044
    Quadrupole Moments (Debye-Ang)
        XX    -478.1952     XY     -36.8880     YY    -313.2556
        XZ      -9.8816     YZ     -43.4048     ZZ    -319.2174
    Octopole Moments (Debye-Ang^2)
       XXX    -407.9634    XXY     658.8033    XYY      90.0443
       YYY     327.3099    XXZ     221.9885    XYZ      98.8906
       YYZ      88.7333    XZZ     118.1876    YZZ      93.1858
       ZZZ    -125.2661
    Hexadecapole Moments (Debye-Ang^3)
      XXXX  -25321.3796   XXXY    -415.3819   XXYY   -5012.8841
      XYYY    -763.0859   YYYY   -7770.8275   XXXZ    -295.2176
      XXYZ    -969.1114   XYYZ    -353.7911   YYYZ    -481.1112
      XXZZ   -3979.0567   XYZZ    -295.7658   YYZZ   -2062.3731
      XZZZ      60.1855   YZZZ    -120.8694   ZZZZ   -4264.0800
 -----------------------------------------------------------------
 Calculating MO derivatives via CPSCF
 CPSCF will be done in 2 segments to save memory.
 Computing fast CPCM-SWIG hessian.
 Computing fast CPCM-SWIG hessian.
   1         0         105      0.085404    0.002230
   2         0         105      0.012871    0.000422
   3         0         105      0.001644    0.000067
   4         0         105      0.000268    0.000017
   5        46          59      0.000034    0.000003
   6        92          13      0.000003    0.000000
   7       105           0      0.000000    0.000000    Roots Converged
   1         0         108      0.159688    0.027554
   2         0         108      0.023635    0.005651
   3         0         108      0.004872    0.001626
   4         0         108      0.000835    0.000276
   5        66          42      0.000133    0.000045
   6        88          20      0.000020    0.000007
   7       105           3      0.000002    0.000001
   8       106           2      0.000000    0.000000
   9       108           0      0.000000    0.000000    Roots Converged
 Calculating analytic Hessian of the SCF energy
 Polarizability Matrix (a.u.)
            1           2           3
    1-517.4132926   8.7983947  -6.9804298
    2   8.7983947-456.4294863  -1.3847971
    3  -6.9804298  -1.3847971-452.9974135

 Q-Chem warning in module drvman/find_multipole_der.C, line 200:

 Net Molecular Charges From Derivative of Dipole Moment are Inconsistent

 Derivative of Dipole Moment Matrix (a.u.)
            1           2           3
    1  -0.4250383  -0.5038540  -0.3233949
    2  -0.3061259  -0.0240168  -0.0592817
    3  -0.3422130  -0.3476836  -0.4696710
    4   0.7811605   0.0916121   0.1837873
    5  -0.0388165   0.2434057  -0.3657961
    6   0.0707061  -0.3399509  -0.0011146
    7  -0.1427137  -0.0931313  -0.0205687
    8  -0.0863127  -0.0986445   0.1006410
    9   0.1132464   0.1470075  -0.0816779
   10  -0.9436600  -0.1079133  -0.4002447
   11  -0.0945478  -0.6111412  -0.2450684
   12  -0.7361487  -0.3523259  -1.4453001
   13   0.1869603   0.0040053  -0.0465009
   14   0.1353656   0.3424757   0.1210485
   15   0.1843596   0.1426717   0.4968485
   16   2.2594105  -0.2998348   0.2281807
   17  -0.2897004   0.6960496   0.6831300
   18   0.1696835   0.8401087   1.3784491
   19  -1.7379316   0.0241154  -0.3312451
   20  -0.1109158  -0.7535900  -0.2183348
   21  -0.5243353  -0.2224520  -1.0089829
   22   1.4725527  -0.1118866   0.0432839
   23  -0.1494915   0.5967648   0.7596279
   24   0.5739028   0.7065019   2.0362407
   25  -1.0761320   0.2129406   0.4128646
   26   0.0714339  -0.7822508  -0.4489483
   27  -0.0592165  -0.3753902  -1.3537155
   28   1.2908875   0.0851394   0.7414354
   29   0.0118450   1.1239808   0.3850998
   30   0.7909206   0.5533214   0.9171669
   31  -0.1101636   0.2371225   0.0081429
   32   0.1541273  -0.1243463   0.0180685
   33  -0.0270140   0.0437666   0.0676631
   34   0.0909921   0.0601800  -0.0033047
   35   0.0627253  -0.0185983   0.0179913
   36  -0.0262809   0.0526077  -0.0585823
   37  -0.0504103   0.0323657   0.0695165
   38  -0.0073434  -0.0259834   0.0070357
   39   0.0753335  -0.0090190   0.0844537
   40   0.0339227  -0.0682015  -0.0715840
   41  -0.0137885  -0.0040510  -0.0510672
   42  -0.0524193  -0.0840881   0.0374163
   43  -0.4582871  -0.0693842  -0.0301897
   44  -0.0650669  -0.0421283   0.0264071
   45  -0.1163826   0.0373213   0.1191337
   46   0.1245923   0.0058770  -0.0169494
   47   0.0177374  -0.0112835  -0.0749034
   48   0.0094069  -0.1042349  -0.0298329
   49   0.0077309  -0.0399467   0.0100852
   50   0.0339503   0.0078777   0.0963628
   51   0.0022906   0.1530206  -0.1061348
   52   0.6778478   0.1839656   0.0541018
   53   0.3001090   0.7562448  -0.5714919
   54   0.1078569  -0.8825491   0.6378988
   55   0.3147039  -0.3692572   0.1008512
   56  -0.3260081   2.0364918  -0.8846105
   57  -0.1079402  -0.5698175   2.2698116
   58  -0.1938034   0.1497382   0.0735328
   59   0.0670329  -0.0498822  -0.0630392
   60   0.1023246  -0.1042287  -0.0908800
   61   0.0578706   0.0480361   0.0132083
   62   0.0267715  -0.0559897   0.1221287
   63   0.0186033   0.1304301  -0.0900600
   64  -0.0893822  -0.0919110  -0.0275279
   65  -0.0861926  -0.0572268  -0.0863877
   66  -0.0094750  -0.0423080   0.0545443
   67   1.7748338   0.6105533  -0.6460828
   68   0.9320595   1.5952461   0.0663148
   69  -0.4751779   0.5496357   0.8576755
   70  -1.1175448  -0.2241992   0.1949434
   71  -0.5834821  -1.4299359  -0.0996835
   72  -0.0843060  -0.4973606  -0.7435800
   73  -1.4692028  -0.3026434   0.4629311
   74  -0.5274044  -0.7562832   0.2146194
   75   0.4247789   0.0916741  -0.7596200
   76   0.4793667   0.0190658  -0.0211393
   77   0.1841480   0.3192224  -0.0740492
   78   0.1187210  -0.0352944   0.1999930
   79   1.9035480   0.1697748  -0.3309725
   80   0.1040085   1.1281164   0.9352495
   81  -0.5598259   1.0959894   1.4439678
   82  -1.5803885   0.2651703   0.5618992
   83   0.0938623  -0.8090273  -0.2809766
   84   0.4683764  -0.4093206  -1.1419646
   85   0.1461769   0.0506455   0.3518544
   86   0.0889810  -0.1947024   0.1388462
   87   0.2823110  -0.0641925  -0.8939657
   88   1.1671877   0.1391771  -0.3602458
   89   0.0761411   0.2590807  -0.0394281
   90  -0.3526915   0.1163927   1.8821935
   91  -0.3514724   0.0226791  -0.0647557
   92   0.1758348  -0.0224031   0.0554499
   93  -0.0475916  -0.0184722   0.0521180
   94   0.0544397   0.0064930   0.0285261
   95  -0.0493078   0.0626388  -0.1028336
   96  -0.0250402  -0.0845500  -0.0773405
   97   0.0512342  -0.0921876  -0.0658135
   98  -0.0916984   0.1764009   0.0212292
   99  -0.0475221   0.0200788   0.1130096
  100  -0.0175381  -0.0613647   0.0099094
  101  -0.1022720   0.0386082   0.0626637
  102   0.0524449   0.0925250  -0.0003623
  103   0.4089235  -0.0932142  -0.2017095
  104  -0.0772342   0.3501025  -0.0282947
  105  -0.3133274   0.0527305   0.6906221
  106  -0.0060712   0.0879523  -0.1113338
  107   0.0452091   0.0466844   0.0176582
  108  -0.0365018   0.0315111  -0.0715862
  109  -0.0963421  -0.1015750   0.0992383
  110  -0.0963170  -0.1226375  -0.0233541
  111   0.0249558  -0.0767569   0.0119117
  112   0.0883116   0.0191020  -0.0935288
  113   0.0140379   0.0192304   0.0647286
  114  -0.0748717   0.0523549   0.0488535
  115  -0.0960251  -0.0252022   0.1904402
  116   0.0244802   0.0028525  -0.0598674
  117   0.1994840   0.0069059  -0.1201598
  118   0.0264856  -0.0262068  -0.0482462
  119  -0.0122448   0.0464598  -0.0287488
  120  -0.0485178  -0.0418600  -0.0049836
  121   0.0868102   0.0520760   0.0871665
  122   0.0430248   0.0915770  -0.0249073
  123   0.0256385   0.0152826   0.1953061
  124  -0.0150562  -0.0216608   0.0733909
  125  -0.0027387   0.0348019   0.0244925
  126   0.0839434  -0.0283408   0.0331318
  127  -0.0165332  -0.0096763  -0.1453258
  128   0.0052590  -0.0221609   0.0470408
  129  -0.1569140   0.0173644  -0.2125069
  130   0.1146548  -0.0359977  -0.0213932
  131   0.0083070   0.1384235  -0.0014744
  132   0.0755199  -0.0087729   0.1084007
  133  -0.0887310  -0.1221897  -0.1038850
  134  -0.1041171  -0.1437942  -0.0440298
  135  -0.0848479  -0.0072358   0.0472630
  136  -0.0451568   0.0957981   0.1681383
  137   0.0493324   0.0112013  -0.0080856
  138   0.1650566  -0.0149175  -0.0759443
  139   0.0660150  -0.2435571  -0.2818786
  140  -0.4250868   0.2768456  -0.0271733
  141  -0.3807564  -0.0832966   0.5485956
  142   0.0108092   0.0203113   0.0222018
  143   0.1495011  -0.1900440   0.0049152
  144   0.0368429   0.0689235  -0.0217315
  145   0.1708891  -0.0713341   0.0216841
  146  -0.0331716   0.1673951   0.0377275
  147  -0.0335280   0.0635422   0.0717559
  148   0.0539928  -0.0089348   0.0114375
  149  -0.0208823  -0.0155310  -0.0423441
  150   0.0433953  -0.0708639  -0.2084578
  151  -0.2474945   0.0508667  -0.1169817
  152   0.0094384  -0.0264266   0.0006666
  153  -0.0914635   0.0397261   0.0396644
  154   0.7224669   0.1841022   0.2022427
  155   0.2034671   0.1196216   0.0499748
  156   0.3147647   0.0827037   0.5942520
  157  -0.0473607   0.0187556  -0.0488569
  158   0.0472419  -0.1382365   0.0406069
  159  -0.0256752   0.0032715   0.0821323
  160  -0.0334663  -0.0254917   0.0699032
  161  -0.0519690   0.0643379  -0.1087058
  162  -0.0262095  -0.0496498  -0.1876899
  163  -0.0414474   0.0058392   0.0162499
  164   0.0056078   0.0218275   0.0593080
  165   0.1230542   0.0316800   0.2332385
  166  -0.0021085   0.0465605   0.0044448
  167   0.1217997   0.0954937   0.0264450
  168   0.0210975   0.0081742   0.0642635
  169   0.0428042  -0.0097433  -0.0609953
  170  -0.0221385  -0.0319518  -0.0720256
  171  -0.0313482  -0.0699253  -0.2547115
  172   0.1375231   0.0178506  -0.0254653
  173   0.0535037   0.0716858  -0.0013758
  174  -0.0324995  -0.0233950   0.1084375
  175   0.1127801  -0.0389226   0.0362885
  176  -0.0192066  -0.0599470  -0.1045261
  177   0.0412544  -0.0919785  -0.1372039
  178  -0.2484143  -0.0475280  -0.0364144
  179  -0.0375056   0.0577107   0.0660587
  180  -0.0734276   0.0696963   0.0571673
  181  -1.5638349   0.2774413   0.0473255
  182   0.3841228  -0.8535257  -0.3376826
  183   0.3150045  -0.4807720  -1.0618232
  184  -1.1093762  -0.2207452  -0.1278883
  185   0.1139776  -1.3105423  -0.6296452
  186   0.1257478  -0.6262932  -1.3394806
  187  -0.8025783   0.0231133   0.0280463
  188  -0.0491474  -1.9685748   0.6368835
  189   0.0381049   0.4185445  -1.0754876
  190   3.0243653  -0.2133813  -0.1876067
  191  -0.0846120   2.7218925  -0.7495698
  192  -0.0493758  -0.8073708   2.1002723
  193  -0.5721691   0.2162152   0.0266232
  194   0.2207632  -1.8236993   0.8554126
  195   0.0979877   0.5813243  -1.5605022
  196  -1.1990884   0.5807556  -0.1449692
  197  -0.3042561  -0.8971669  -0.3345070
  198  -0.6338071   0.3307308  -0.7337560
  199  -1.5688276  -0.0890774  -0.6898141
  200   0.6216316  -1.1068978   0.1864331
  201  -0.4511584  -0.3429414  -0.8545848
  202  -1.1920776  -0.1114419  -0.3167741
  203  -0.1616617  -0.5907469  -0.0350001
  204   0.7198564   0.2172929  -0.9749542
  205  -0.5722551   0.0414482   0.0213412
  206   0.0634586  -0.9650159   0.2777343
  207   0.0602492   0.6143968  -2.0864483
  208  -1.6141547  -0.2051860   0.8483761
  209  -0.2894750  -0.5823216   0.0992255
  210   0.0606239  -0.1115867  -1.3490534
 -----------------------------------------
 Net:  -2.99989  -2.99988  -2.99998
 -----------------------------------------

 
 Direct stationary perturbation theory relativistic correction:
 
 rels  =       5.437880987533
 relv  =     -22.040675910214
 rel2e =       6.787165671226
 E_rel =      -9.815629251455
 
 Computing fast CPCM-SWIG hessian
 Gradient time:  CPU 1206018.06 s  wall 69452.10 s
 **********************************************************************
 **                                                                  **
 **                       VIBRATIONAL ANALYSIS                       **
 **                       --------------------                       **
 **                                                                  **
 **        VIBRATIONAL FREQUENCIES (CM**-1) AND NORMAL MODES         **
 **     FORCE CONSTANTS (mDYN/ANGSTROM) AND REDUCED MASSES (AMU)     **
 **                  INFRARED INTENSITIES (KM/MOL)                   **
 **                                                                  **
 **********************************************************************
 

 Mode:                 1                      2                      3
 Frequency:      -183.03                -146.93                -115.87
 Force Cnst:      0.2696                 0.1555                 0.0988
 Red. Mass:      13.6599                12.2265                12.4878
 IR Active:          YES                    YES                    YES
 IR Intens:        9.314                 13.543                 16.315
 Raman Active:       YES                    YES                    YES
               X      Y      Z        X      Y      Z        X      Y      Z
 N         -0.009 -0.038 -0.030   -0.062  0.023 -0.018    0.044 -0.017  0.004
 C          0.070  0.062  0.082   -0.004  0.024  0.028    0.056 -0.043 -0.011
 H          0.039 -0.004  0.009   -0.002  0.009  0.017    0.044 -0.040 -0.014
 N          0.042  0.077  0.111   -0.006  0.026  0.025    0.044 -0.041  0.019
 H          0.035  0.137  0.052   -0.004  0.053  0.005    0.065 -0.094  0.080
 C          0.290  0.192  0.021    0.015  0.059  0.012    0.057 -0.067  0.006
 O          0.344  0.060 -0.079    0.021  0.060  0.002    0.086  0.117 -0.078
 C          0.019  0.022  0.115   -0.014 -0.012  0.040   -0.016 -0.035  0.047
 O          0.015  0.005  0.125   -0.035 -0.059  0.057   -0.068 -0.044  0.014
 C         -0.007 -0.048 -0.019   -0.068  0.019 -0.011    0.046 -0.018  0.002
 C          0.002 -0.041 -0.010   -0.057  0.024 -0.018    0.040 -0.023  0.015
 H          0.003 -0.033 -0.007   -0.058  0.016 -0.021    0.033 -0.017  0.018
 H          0.001 -0.035 -0.010   -0.056  0.033 -0.012    0.042 -0.028  0.018
 H          0.007 -0.048 -0.007   -0.049  0.023 -0.026    0.039 -0.023  0.016
 C          0.003 -0.015  0.077    0.000  0.001  0.017   -0.024  0.001  0.103
 H         -0.040 -0.030  0.072   -0.015  0.004  0.006    0.012 -0.011  0.136
 H          0.035  0.006  0.085    0.027  0.003  0.016   -0.028  0.053  0.129
 C         -0.006 -0.022  0.011   -0.013  0.018 -0.011   -0.061  0.029  0.060
 C         -0.015 -0.015 -0.016   -0.066  0.000 -0.002   -0.064  0.037  0.042
 C         -0.012 -0.008  0.001    0.033  0.091 -0.048   -0.038  0.086  0.002
 H          0.002 -0.007  0.002    0.088  0.092 -0.042    0.045  0.021 -0.042
 H         -0.001 -0.011 -0.014   -0.013  0.125 -0.054   -0.044  0.082  0.023
 C         -0.057 -0.004 -0.020    0.091  0.100 -0.037   -0.133  0.197 -0.114
 O         -0.098  0.024 -0.041    0.057  0.140 -0.082   -0.366  0.419 -0.346
 N         -0.056 -0.018 -0.019    0.181  0.023  0.038    0.003  0.037  0.033
 H         -0.032 -0.037 -0.009    0.167  0.017  0.050    0.101 -0.085  0.132
 C         -0.085  0.009 -0.008    0.280 -0.164 -0.055   -0.025  0.024 -0.014
 O         -0.076  0.037 -0.006    0.214 -0.318 -0.077   -0.061  0.077 -0.074
 N         -0.037 -0.038 -0.013   -0.064 -0.020  0.013    0.040 -0.033  0.002
 C         -0.039 -0.041 -0.012   -0.075 -0.012  0.015    0.046 -0.048 -0.000
 C         -0.042 -0.021 -0.009   -0.071 -0.031  0.024    0.045 -0.037 -0.005
 H         -0.048 -0.024 -0.007   -0.070 -0.014  0.017    0.047 -0.048 -0.000
 H         -0.033 -0.017 -0.012   -0.079 -0.034  0.050    0.053 -0.033 -0.020
 H         -0.047 -0.013 -0.005   -0.051 -0.053  0.018    0.034 -0.023 -0.001
 C         -0.036 -0.026 -0.010   -0.041 -0.022  0.027    0.033 -0.009 -0.005
 H         -0.029 -0.010 -0.011   -0.036 -0.064  0.013    0.031  0.014  0.003
 H         -0.030 -0.033  0.003   -0.069  0.007  0.016    0.038 -0.015  0.010
 C         -0.049 -0.030 -0.015    0.007 -0.003  0.056    0.019 -0.012 -0.031
 H         -0.048 -0.037 -0.015    0.024  0.017  0.070   -0.001 -0.018 -0.046
 H         -0.053 -0.034 -0.014   -0.000  0.005  0.067    0.036 -0.021 -0.045
 C         -0.060 -0.021 -0.015    0.051 -0.034  0.035   -0.004  0.005 -0.010
 H         -0.059 -0.017 -0.014    0.037 -0.071  0.027    0.005  0.031 -0.007
 H         -0.061 -0.017 -0.014    0.061 -0.047  0.030   -0.010  0.001 -0.007
 C         -0.067 -0.022 -0.016    0.113 -0.010  0.025   -0.030  0.001  0.009
 H         -0.070 -0.020 -0.010    0.136 -0.035  0.040   -0.039  0.010  0.023
 H         -0.070 -0.027 -0.018    0.101  0.022  0.001   -0.026 -0.020  0.020
 C         -0.065 -0.017 -0.018    0.165 -0.011  0.013   -0.029  0.022  0.010
 H         -0.050 -0.015 -0.017    0.088 -0.020  0.015   -0.017  0.022  0.015
 C         -0.015  0.004 -0.010   -0.049  0.011  0.001    0.059 -0.041  0.016
 H         -0.011  0.026 -0.015   -0.038  0.020 -0.001    0.056 -0.042  0.017
 H         -0.015 -0.002 -0.013   -0.054  0.001  0.010    0.054 -0.059  0.018
 C         -0.009 -0.019 -0.028   -0.061  0.013 -0.015    0.039 -0.022  0.015
 H          0.009 -0.012 -0.037   -0.066  0.010 -0.022    0.025 -0.027  0.030
 H         -0.017 -0.036 -0.025   -0.060  0.004 -0.012    0.030 -0.009  0.009
 C         -0.014  0.006  0.017   -0.043  0.012  0.010    0.083 -0.034  0.016
 H         -0.011  0.009 -0.010   -0.040  0.019 -0.012    0.081 -0.023  0.044
 H         -0.046 -0.023  0.034   -0.066 -0.003  0.020    0.111 -0.032  0.009
 C          0.021  0.033  0.063   -0.013  0.020  0.037    0.064 -0.043 -0.008
 H          0.025  0.063  0.050    0.009  0.028  0.033    0.053 -0.056 -0.003
 H          0.020  0.000  0.083   -0.019  0.013  0.065    0.070 -0.036 -0.029
 O          0.452  0.482  0.055    0.029  0.095  0.004   -0.002 -0.289  0.106
 O         -0.113  0.007 -0.002    0.458 -0.174 -0.073    0.017 -0.031  0.029
 O         -0.035 -0.058 -0.010   -0.074  0.019 -0.011   -0.097 -0.005  0.038
 Fe        -0.032 -0.065 -0.028   -0.094  0.018  0.001    0.034 -0.015  0.015
 O         -0.041 -0.029 -0.034   -0.104 -0.006 -0.002    0.010  0.049  0.033
 O         -0.023 -0.047 -0.031   -0.072  0.018 -0.010    0.048 -0.013 -0.006
 O         -0.012 -0.065 -0.017   -0.080  0.013  0.005    0.056 -0.017 -0.009
 O         -0.032 -0.071 -0.017   -0.068  0.014 -0.000    0.045 -0.064  0.007
 O         -0.011 -0.006 -0.016   -0.104 -0.011 -0.006   -0.135  0.032  0.040
 O         -0.039 -0.065 -0.017   -0.084  0.018  0.010    0.050 -0.075  0.002
 TransDip  -0.068 -0.069 -0.015   -0.100  0.054  0.031    0.108 -0.047  0.054

 Mode:                 4                      5                      6
 Frequency:      -111.42                 -97.85                 -84.48
 Force Cnst:      0.0905                 0.0673                 0.0416
 Red. Mass:      12.3695                11.9236                 9.8961
 IR Active:          YES                    YES                    YES
 IR Intens:        3.174                  8.463                  8.420
 Raman Active:       YES                    YES                    YES
               X      Y      Z        X      Y      Z        X      Y      Z
 N         -0.046 -0.003 -0.019   -0.032 -0.019  0.021   -0.007 -0.065 -0.062
 C          0.109  0.037 -0.004   -0.007 -0.041 -0.040   -0.060  0.058  0.070
 H          0.122 -0.010 -0.024   -0.029 -0.030 -0.047   -0.050  0.058  0.077
 N          0.106  0.023 -0.019   -0.009 -0.040 -0.002   -0.046  0.016  0.028
 H          0.075 -0.125  0.074   -0.015 -0.107  0.046   -0.076  0.008  0.011
 C          0.096  0.082 -0.018    0.034 -0.082 -0.033   -0.140  0.118  0.048
 O          0.164  0.549 -0.221    0.027 -0.216 -0.008   -0.165  0.156  0.107
 C          0.101  0.032 -0.020    0.055  0.185 -0.106    0.008  0.027  0.002
 O          0.127  0.112 -0.058    0.162  0.470 -0.221    0.064  0.084  0.005
 C         -0.053 -0.014 -0.002   -0.059 -0.018  0.031   -0.007 -0.086 -0.038
 C         -0.046 -0.010 -0.001   -0.062 -0.019  0.013    0.005 -0.079 -0.018
 H         -0.045 -0.009 -0.000   -0.048 -0.023  0.009    0.017 -0.057 -0.010
 H         -0.046 -0.007  0.001   -0.067 -0.019  0.000   -0.001 -0.075 -0.029
 H         -0.041 -0.013 -0.001   -0.071 -0.016  0.018    0.006 -0.095 -0.001
 C          0.071 -0.013  0.016    0.011  0.078 -0.026   -0.002 -0.024 -0.007
 H          0.080 -0.030  0.036    0.022  0.060 -0.003   -0.020 -0.027 -0.014
 H          0.048  0.009  0.029   -0.079  0.071 -0.022   -0.015 -0.032 -0.010
 C          0.054 -0.007  0.004    0.050  0.035  0.025    0.016 -0.041 -0.015
 C          0.047 -0.005 -0.002    0.136  0.034  0.057    0.066 -0.020 -0.021
 C          0.046 -0.010  0.011    0.028 -0.029 -0.009    0.017 -0.029 -0.022
 H          0.030  0.025  0.037    0.015 -0.063 -0.037    0.026 -0.064 -0.050
 H          0.059 -0.008 -0.022    0.070 -0.066  0.019    0.001 -0.032  0.018
 C          0.035 -0.063  0.040   -0.039  0.003 -0.059    0.027  0.040 -0.048
 O          0.079 -0.122  0.115   -0.145  0.096 -0.152    0.002  0.101 -0.140
 N         -0.011 -0.027 -0.023    0.017 -0.070  0.000    0.055  0.036  0.029
 H         -0.020  0.004 -0.058    0.060 -0.113  0.029    0.064 -0.020  0.100
 C         -0.021 -0.028 -0.008   -0.001 -0.086 -0.012    0.056  0.129  0.086
 O         -0.002 -0.049  0.024    0.011 -0.117  0.015    0.059  0.270  0.030
 N         -0.057 -0.002  0.010   -0.047 -0.020  0.044   -0.002 -0.065  0.015
 C         -0.063 -0.002  0.012   -0.041 -0.002  0.041   -0.022 -0.095  0.021
 C         -0.063 -0.007  0.018   -0.036 -0.040  0.036   -0.033 -0.071  0.049
 H         -0.065 -0.003  0.016   -0.022 -0.029  0.031   -0.061 -0.067  0.047
 H         -0.068 -0.009  0.023   -0.065 -0.055  0.047   -0.018 -0.063  0.064
 H         -0.055 -0.012  0.018   -0.015 -0.065  0.029   -0.028 -0.065  0.058
 C         -0.050 -0.005  0.016   -0.052 -0.035  0.043    0.016 -0.002  0.026
 H         -0.044 -0.006  0.011   -0.052 -0.037  0.042    0.019 -0.011  0.022
 H         -0.051 -0.004  0.018   -0.045 -0.039  0.033   -0.017  0.027  0.051
 C         -0.046 -0.004  0.021   -0.060 -0.038  0.049    0.067  0.026  0.014
 H         -0.037  0.001  0.028   -0.052 -0.040  0.055    0.074  0.055  0.020
 H         -0.055 -0.005  0.027   -0.070 -0.046  0.055    0.065  0.041  0.017
 C         -0.039 -0.008  0.007   -0.059 -0.036  0.035    0.102 -0.001 -0.001
 H         -0.040 -0.025  0.010   -0.050 -0.060  0.050    0.080 -0.014 -0.022
 H         -0.040  0.001  0.008   -0.070 -0.017  0.041    0.125 -0.022 -0.013
 C         -0.025 -0.008 -0.016   -0.034 -0.032 -0.010    0.129  0.019  0.033
 H         -0.022 -0.011 -0.022   -0.024 -0.039 -0.018    0.154 -0.004  0.024
 H         -0.032  0.007 -0.028   -0.042  0.001 -0.029    0.158  0.031  0.064
 C         -0.017 -0.026 -0.022   -0.012 -0.064 -0.023    0.094  0.063  0.051
 H         -0.023 -0.027 -0.029   -0.021 -0.068 -0.048    0.146  0.069  0.064
 C         -0.047  0.019 -0.011   -0.019 -0.043 -0.059   -0.045  0.027 -0.039
 H         -0.037  0.025 -0.012   -0.058 -0.055 -0.058   -0.030  0.060 -0.046
 H         -0.050  0.017 -0.004   -0.007 -0.049 -0.090   -0.038  0.051 -0.041
 C         -0.046  0.009 -0.020   -0.010 -0.024 -0.015   -0.006 -0.032 -0.066
 H         -0.034  0.014 -0.024   -0.021 -0.028 -0.012    0.038 -0.014 -0.097
 H         -0.049  0.001 -0.018    0.021 -0.005 -0.013   -0.011 -0.071 -0.055
 C         -0.037  0.022 -0.014    0.001 -0.040 -0.061   -0.090  0.013 -0.002
 H         -0.023  0.046 -0.115   -0.002 -0.032 -0.024   -0.082 -0.004 -0.085
 H         -0.139 -0.011  0.021    0.044 -0.031 -0.074   -0.182 -0.031  0.033
 C          0.085  0.024  0.068   -0.030 -0.053 -0.093   -0.024  0.073  0.099
 H          0.186  0.024  0.060   -0.095 -0.043 -0.095    0.085  0.103  0.079
 H          0.065  0.003  0.172   -0.012 -0.085 -0.153   -0.051  0.099  0.200
 O         -0.030 -0.369  0.173    0.080  0.027 -0.048   -0.172  0.142 -0.036
 O         -0.049 -0.003 -0.025   -0.009 -0.074 -0.020    0.030  0.034  0.172
 O          0.031 -0.016 -0.002    0.056  0.053  0.034   -0.007 -0.066 -0.029
 Fe        -0.058 -0.018 -0.009   -0.030  0.032  0.052   -0.028 -0.083 -0.045
 O         -0.034 -0.026 -0.013    0.069  0.026  0.080   -0.045 -0.054 -0.044
 O         -0.052 -0.009 -0.016   -0.022 -0.012  0.035   -0.020 -0.075 -0.071
 O         -0.066 -0.027  0.014   -0.077 -0.013  0.061   -0.015 -0.111 -0.030
 O         -0.058  0.006  0.003   -0.052  0.016  0.048    0.007 -0.086 -0.012
 O          0.120  0.016  0.006    0.310  0.046  0.066    0.239  0.030 -0.002
 O         -0.066  0.004  0.007   -0.039  0.047  0.047   -0.032 -0.138  0.003
 TransDip  -0.045 -0.032  0.015   -0.077 -0.050  0.017    0.005 -0.093 -0.005

 Mode:                 7                      8                      9
 Frequency:       -82.50                 -66.20                 -51.60
 Force Cnst:      0.0401                 0.0269                 0.0103
 Red. Mass:      10.0060                10.4337                 6.5957
 IR Active:          YES                    YES                    YES
 IR Intens:       12.751                  4.713                  3.448
 Raman Active:       YES                    YES                    YES
               X      Y      Z        X      Y      Z        X      Y      Z
 N         -0.010  0.042 -0.017    0.011 -0.065  0.025   -0.008 -0.051  0.024
 C         -0.001  0.025  0.006   -0.035 -0.012  0.044    0.011  0.032 -0.062
 H          0.006  0.046  0.026   -0.046 -0.035  0.020    0.032  0.017 -0.059
 N         -0.004  0.067  0.020   -0.035 -0.060  0.030    0.017  0.069 -0.059
 H          0.023  0.110  0.006   -0.061 -0.091  0.035    0.039  0.096 -0.062
 C          0.013 -0.037  0.036   -0.047  0.067  0.008   -0.002  0.048 -0.073
 O          0.018 -0.053  0.023   -0.046  0.115  0.002   -0.006  0.073 -0.068
 C         -0.057 -0.062  0.092    0.016  0.043 -0.032   -0.025 -0.021 -0.000
 O         -0.128 -0.248  0.168    0.080  0.197 -0.090   -0.082 -0.134  0.035
 C         -0.007  0.048 -0.026    0.004 -0.066  0.027   -0.006 -0.011 -0.027
 C          0.001  0.054 -0.044    0.001 -0.068  0.028    0.034  0.022 -0.135
 H          0.000  0.038 -0.051    0.003 -0.064  0.029    0.079 -0.035 -0.167
 H          0.003  0.064 -0.037   -0.000 -0.069  0.024    0.016  0.080 -0.153
 H          0.007  0.061 -0.056   -0.003 -0.067  0.031    0.038  0.043 -0.162
 C         -0.031  0.010  0.058   -0.003 -0.025 -0.030   -0.014  0.006  0.027
 H         -0.045 -0.013  0.070   -0.017 -0.015 -0.044    0.006  0.018  0.026
 H          0.017  0.048  0.075   -0.021 -0.046 -0.040   -0.035 -0.008  0.021
 C         -0.008  0.005 -0.022   -0.013 -0.029  0.004    0.008 -0.004  0.066
 C          0.114  0.025  0.005   -0.072 -0.062  0.013    0.067 -0.020  0.111
 C         -0.004 -0.048 -0.103    0.001  0.007 -0.017    0.013 -0.034  0.032
 H          0.016 -0.055 -0.108    0.041 -0.008 -0.026    0.019 -0.062  0.010
 H          0.033 -0.070 -0.110   -0.013  0.019 -0.020    0.017 -0.045  0.059
 C         -0.056 -0.054 -0.133   -0.009  0.031 -0.046    0.016 -0.000  0.010
 O         -0.096 -0.032 -0.146   -0.029  0.048 -0.060    0.010  0.019 -0.022
 N         -0.039 -0.077 -0.116   -0.001  0.018 -0.042    0.030 -0.004  0.033
 H         -0.047 -0.064 -0.125   -0.021  0.061 -0.084    0.028 -0.010  0.042
 C          0.001 -0.067  0.061    0.030  0.004  0.063    0.021  0.043 -0.008
 O          0.145 -0.185  0.270    0.169 -0.210  0.310    0.004  0.085 -0.047
 N         -0.001  0.008  0.025   -0.009 -0.010 -0.050   -0.043 -0.042 -0.046
 C         -0.026  0.036  0.029    0.012  0.056 -0.059    0.013  0.039 -0.064
 C         -0.036  0.046  0.056    0.013  0.135 -0.095    0.033  0.057 -0.139
 H         -0.059  0.044  0.057    0.014  0.140 -0.098    0.080  0.099 -0.158
 H         -0.035  0.048  0.060    0.061  0.160 -0.109    0.037  0.059 -0.122
 H         -0.028  0.052  0.067   -0.042  0.163 -0.113   -0.001  0.029 -0.193
 C          0.019  0.040  0.037   -0.027  0.009 -0.067   -0.087 -0.075 -0.082
 H          0.026  0.037  0.031   -0.053 -0.028 -0.058   -0.127 -0.131 -0.067
 H         -0.004  0.060  0.060   -0.058  0.041 -0.092   -0.101 -0.053 -0.150
 C          0.064  0.061  0.019    0.033  0.036 -0.069   -0.057 -0.061 -0.049
 H          0.087  0.115  0.038    0.014  0.067 -0.085   -0.065 -0.071 -0.055
 H          0.040  0.046  0.034    0.051  0.060 -0.078   -0.045 -0.022 -0.051
 C          0.102  0.036 -0.060    0.079 -0.005 -0.057   -0.031 -0.087 -0.007
 H          0.082 -0.019 -0.070    0.074 -0.025 -0.058   -0.030 -0.081 -0.005
 H          0.125  0.071 -0.070    0.077 -0.034 -0.056   -0.038 -0.128 -0.004
 C          0.123  0.034 -0.111    0.118  0.014 -0.041    0.008 -0.063  0.030
 H          0.149  0.032 -0.222    0.151 -0.007 -0.096    0.027 -0.090  0.065
 H          0.174  0.094 -0.071    0.160  0.044 -0.003    0.006 -0.062  0.029
 C          0.015 -0.060 -0.080    0.040 -0.000 -0.006    0.033 -0.000  0.030
 H         -0.015 -0.067 -0.123    0.020  0.000 -0.002    0.071  0.006  0.057
 C         -0.006  0.022 -0.036   -0.004 -0.020  0.045   -0.038  0.015 -0.108
 H         -0.017  0.020 -0.036    0.011 -0.004  0.042   -0.048 -0.007 -0.105
 H         -0.003  0.022 -0.044   -0.004 -0.010  0.051   -0.015  0.086 -0.125
 C         -0.006  0.031 -0.025    0.012 -0.054  0.023    0.038 -0.030 -0.060
 H         -0.014  0.028 -0.025    0.033 -0.046 -0.001    0.077 -0.016 -0.109
 H          0.004  0.036 -0.024    0.008 -0.082  0.031    0.095 -0.059 -0.037
 C         -0.006  0.019 -0.032   -0.025 -0.024  0.058   -0.113 -0.001 -0.138
 H         -0.007  0.020 -0.019   -0.023 -0.035  0.030   -0.102 -0.029 -0.256
[...]
 H          0.000  0.000  0.001    0.000  0.000  0.001   -0.000 -0.000 -0.001
 H         -0.000  0.000 -0.000   -0.000  0.000 -0.000    0.000 -0.001  0.000
 H          0.000  0.000 -0.000    0.000  0.000 -0.000   -0.000 -0.000  0.000
 C         -0.000 -0.000 -0.000   -0.000 -0.000 -0.000    0.000  0.000  0.000
 H          0.003 -0.001  0.004    0.001 -0.000  0.001   -0.001  0.000 -0.002
 H          0.002  0.002  0.000    0.001  0.001  0.000   -0.001 -0.001 -0.000
 C          0.000 -0.000  0.000   -0.000  0.000 -0.000    0.000 -0.000  0.000
 H          0.000  0.000 -0.001    0.000  0.000 -0.000    0.000  0.000 -0.000
 H         -0.002  0.000 -0.002    0.000 -0.000  0.001   -0.001  0.000 -0.002
 C         -0.000  0.000  0.000   -0.000  0.000  0.000    0.000 -0.000 -0.000
 H          0.000 -0.000 -0.000    0.001 -0.000 -0.001   -0.000 -0.000  0.000
 H         -0.000  0.000 -0.000   -0.000  0.000 -0.000    0.000 -0.000  0.000
 C         -0.000 -0.000  0.000   -0.000  0.000  0.000   -0.000 -0.000  0.000
 H          0.000  0.000  0.000   -0.000 -0.000  0.000    0.000  0.000  0.000
 H          0.000 -0.000 -0.000    0.000 -0.000 -0.000    0.000 -0.000 -0.000
 C          0.000 -0.000  0.000   -0.000  0.000 -0.000    0.000 -0.000 -0.000
 H         -0.000  0.000 -0.000    0.000 -0.001  0.000    0.000  0.000 -0.000
 C          0.000 -0.000 -0.000   -0.000  0.000 -0.000   -0.007  0.001 -0.007
 H          0.000  0.000  0.001   -0.000  0.000  0.000   -0.002  0.010  0.042
 H         -0.003  0.001 -0.001    0.000 -0.000  0.000    0.089 -0.023  0.037
 C          0.001 -0.002  0.000   -0.000  0.000  0.000    0.002 -0.003 -0.001
 H         -0.009  0.021 -0.000   -0.000  0.000 -0.000   -0.017  0.039 -0.002
 H          0.001 -0.002 -0.002    0.000 -0.000 -0.000   -0.003  0.003  0.011
 C          0.001  0.000  0.000   -0.000  0.000 -0.000   -0.081  0.004 -0.025
 H         -0.007  0.001 -0.001    0.006 -0.001  0.001    0.942 -0.091  0.106
 H         -0.000 -0.001 -0.002    0.000  0.000  0.001    0.041  0.056  0.196
 C          0.000  0.000  0.000   -0.000 -0.000 -0.000   -0.011 -0.005 -0.010
 H         -0.000 -0.000 -0.001    0.000  0.002  0.004    0.004  0.038  0.089
 H         -0.001 -0.000 -0.000    0.001  0.000  0.000    0.131  0.020  0.029
 O         -0.000  0.000  0.000   -0.000  0.000  0.000    0.000 -0.000  0.000
 O          0.000 -0.000  0.000    0.000  0.000  0.000    0.000  0.000  0.000
 O          0.000  0.000 -0.000    0.000  0.000  0.000    0.000  0.000 -0.000
 Fe         0.000 -0.000 -0.000    0.000 -0.000 -0.000    0.000 -0.000  0.000
 O         -0.000  0.000 -0.000   -0.000 -0.000  0.000    0.000  0.000 -0.000
 O          0.000  0.000 -0.000   -0.000  0.000 -0.000   -0.001 -0.001 -0.000
 O          0.000  0.000 -0.000   -0.000  0.000  0.000   -0.000 -0.000  0.000
 O          0.000 -0.000 -0.000    0.000  0.000 -0.000   -0.000 -0.000  0.000
 O          0.000  0.000 -0.000   -0.000 -0.000  0.000    0.000  0.000 -0.000
 O          0.000  0.000 -0.000    0.000  0.000  0.000   -0.000 -0.000  0.000
 TransDip   0.033  0.031 -0.061   -0.023 -0.004 -0.142   -0.068  0.003 -0.085

 Mode:               199                    200                    201
 Frequency:      3142.23                3151.88                3152.74
 Force Cnst:      6.3588                 6.4077                 6.4627
 Red. Mass:       1.0931                 1.0947                 1.1035
 IR Active:          YES                    YES                    YES
 IR Intens:       23.122                 25.839                 12.225
 Raman Active:       YES                    YES                    YES
               X      Y      Z        X      Y      Z        X      Y      Z
 N         -0.000 -0.000  0.000   -0.000 -0.001 -0.000    0.000  0.000 -0.000
 C         -0.000 -0.000  0.000    0.000  0.000 -0.000   -0.000 -0.000  0.000
 H          0.000  0.000 -0.000   -0.000 -0.001  0.000    0.000  0.000 -0.000
 N          0.000 -0.000 -0.000    0.000 -0.000  0.000    0.000 -0.000 -0.000
 H         -0.000  0.000  0.000    0.000 -0.000 -0.000   -0.000  0.000  0.000
 C         -0.000 -0.000  0.000    0.000 -0.000  0.000    0.000  0.000  0.000
 O          0.000 -0.000  0.000   -0.000 -0.000 -0.000   -0.000  0.000  0.000
 C         -0.000  0.000  0.000    0.000 -0.000 -0.000    0.000  0.000 -0.000
 O          0.000  0.000  0.000    0.000 -0.000  0.000    0.000  0.000  0.000
 C         -0.000  0.000 -0.000    0.000 -0.000 -0.000    0.000  0.000 -0.000
 C         -0.000 -0.000 -0.000   -0.016 -0.012 -0.014    0.000  0.000  0.000
 H          0.000 -0.000  0.000    0.005 -0.028  0.052   -0.000  0.000 -0.000
 H         -0.000 -0.000  0.000    0.056  0.009 -0.029   -0.000 -0.000  0.000
 H          0.000  0.000  0.000    0.120  0.156  0.141   -0.001 -0.001 -0.001
 C         -0.000  0.000  0.000    0.000  0.000 -0.000   -0.000  0.000  0.000
 H          0.000 -0.001 -0.001    0.000 -0.000 -0.000    0.000 -0.000 -0.000
 H         -0.000  0.000 -0.001    0.000 -0.000  0.001   -0.000  0.000 -0.000
 C         -0.000 -0.000  0.000    0.000  0.000 -0.000    0.000  0.000 -0.000
 C          0.000 -0.000  0.000    0.000  0.000 -0.000    0.000 -0.000 -0.000
 C         -0.000 -0.000  0.000    0.000  0.000 -0.000   -0.000 -0.000  0.000
 H          0.000  0.001 -0.001    0.000 -0.000  0.001    0.000  0.000 -0.000
 H          0.000  0.001  0.000   -0.000 -0.000 -0.000    0.001  0.001  0.000
 C         -0.000 -0.000  0.000    0.000 -0.000  0.000    0.000  0.000 -0.000
 O          0.000  0.000  0.000    0.000 -0.000 -0.000   -0.000  0.000 -0.000
 N          0.000  0.000  0.000    0.000 -0.000 -0.000   -0.000 -0.000 -0.000
 H         -0.001 -0.003 -0.000    0.000  0.000  0.000    0.000  0.000  0.000
 C         -0.000  0.001  0.000    0.000 -0.000  0.000    0.000 -0.000 -0.000
 O          0.000 -0.000 -0.000    0.000 -0.000 -0.000   -0.000  0.000  0.000
 N         -0.000  0.000 -0.000    0.000 -0.000 -0.000    0.001 -0.000  0.000
 C         -0.000  0.000  0.000    0.000 -0.000  0.000    0.001 -0.000 -0.002
 C          0.002  0.004 -0.008    0.000 -0.000 -0.000    0.027  0.001 -0.089
 H          0.001  0.022  0.048    0.000  0.001  0.002    0.006  0.313  0.701
 H          0.016 -0.031 -0.004   -0.000  0.000 -0.000   -0.019  0.048 -0.019
 H         -0.039 -0.046  0.049   -0.001 -0.001  0.001   -0.313 -0.375  0.388
 C         -0.031 -0.007 -0.030   -0.000 -0.000 -0.000    0.005  0.002  0.004
 H          0.230 -0.083  0.329    0.000 -0.000  0.000   -0.030  0.010 -0.042
 H          0.150  0.161  0.021    0.001  0.001  0.000   -0.032 -0.035 -0.004
 C         -0.031  0.008 -0.068   -0.000 -0.000  0.000    0.002 -0.000  0.005
 H         -0.116  0.000  0.138    0.000 -0.000 -0.000    0.009 -0.000 -0.011
 H          0.486 -0.105  0.690    0.000 -0.000  0.000   -0.036  0.008 -0.051
 C          0.002 -0.000 -0.009   -0.000 -0.000  0.000   -0.000  0.000  0.001
 H         -0.048  0.009  0.044    0.000 -0.000 -0.000    0.003 -0.001 -0.002
 H          0.034  0.002  0.066   -0.000 -0.000 -0.000   -0.003 -0.000 -0.005
 C          0.000 -0.000 -0.000   -0.000 -0.000  0.000   -0.000  0.000  0.000
 H          0.001  0.000  0.000   -0.000 -0.000 -0.000   -0.000 -0.000 -0.000
 H         -0.003  0.000  0.001    0.000 -0.000 -0.000    0.000 -0.000 -0.000
 C         -0.000 -0.000 -0.000    0.000  0.000 -0.000    0.000 -0.000 -0.000
 H          0.000 -0.001  0.000    0.000 -0.000  0.000    0.000 -0.000 -0.000
 C         -0.000  0.000 -0.000    0.004 -0.001 -0.002   -0.000  0.000  0.000
 H         -0.000  0.000  0.000   -0.001  0.004  0.026    0.000 -0.000 -0.000
 H          0.000 -0.000  0.000   -0.037  0.008 -0.014    0.000 -0.000  0.000
 C         -0.000  0.000 -0.000    0.036 -0.076 -0.014   -0.000  0.000  0.000
 H          0.000 -0.000  0.000   -0.370  0.851 -0.043    0.001 -0.002  0.000
 H         -0.000  0.000 -0.000   -0.058  0.062  0.227    0.000 -0.000 -0.001
 C         -0.000  0.000 -0.000    0.003  0.000  0.001   -0.000 -0.000 -0.000
 H          0.003 -0.000  0.000   -0.038  0.005 -0.005    0.000 -0.000  0.000
 H          0.000  0.000  0.001   -0.002 -0.002 -0.010    0.000  0.000  0.000
 C         -0.000 -0.000 -0.000    0.001  0.000  0.000   -0.000 -0.000 -0.000
 H          0.000  0.000  0.000   -0.000 -0.001 -0.002    0.000  0.000  0.000
 H          0.000  0.000  0.000   -0.006 -0.001 -0.001    0.000  0.000  0.000
 O          0.000  0.000  0.000    0.000 -0.000 -0.000   -0.000  0.000  0.000
 O         -0.000 -0.000 -0.001    0.000 -0.000 -0.000    0.000  0.000  0.000
 O          0.000  0.000 -0.000    0.000 -0.000  0.000    0.000  0.000  0.000
 Fe        -0.000 -0.000 -0.000   -0.000  0.000 -0.000   -0.000  0.000 -0.000
 O          0.000  0.000 -0.000    0.000 -0.000  0.000    0.000  0.000 -0.000
 O          0.000  0.000  0.000   -0.000  0.001  0.000    0.000 -0.000  0.000
 O          0.000 -0.000 -0.000    0.000  0.000  0.000    0.000 -0.000  0.000
 O          0.000 -0.000  0.000    0.000  0.000 -0.000   -0.000  0.000  0.000
 O         -0.000  0.000 -0.000    0.000 -0.000  0.000    0.000  0.000 -0.000
 O          0.000  0.000 -0.000    0.000  0.000  0.000   -0.000  0.000  0.000
 TransDip  -0.027 -0.058 -0.140    0.057 -0.151 -0.023    0.030  0.020 -0.106

 Mode:               202                    203                    204
 Frequency:      3161.52                3490.51                3531.50
 Force Cnst:      6.4868                 7.7384                 7.9166
 Red. Mass:       1.1015                 1.0780                 1.0774
 IR Active:          YES                    YES                    YES
 IR Intens:        8.249                284.439                233.318
 Raman Active:       YES                    YES                    YES
               X      Y      Z        X      Y      Z        X      Y      Z
 N         -0.000  0.000  0.000    0.000 -0.000 -0.000   -0.000  0.000 -0.000
 C         -0.000 -0.000 -0.000    0.001  0.000  0.000   -0.000 -0.000  0.000
 H         -0.000 -0.000  0.000   -0.006 -0.005  0.001    0.000  0.000 -0.000
 N         -0.000  0.000 -0.000    0.040 -0.038 -0.048   -0.000  0.000  0.000
 H         -0.000  0.000  0.000   -0.572  0.514  0.635    0.002 -0.002 -0.002
 C         -0.000 -0.000 -0.000   -0.001  0.000  0.000   -0.000 -0.000 -0.000
 O          0.000 -0.000  0.000    0.001 -0.000  0.000   -0.000  0.000  0.000
 C         -0.000  0.000 -0.000    0.000 -0.000  0.000   -0.000  0.000 -0.000
 O         -0.000 -0.000 -0.000   -0.001  0.001  0.002    0.000 -0.000 -0.000
 C         -0.002  0.000 -0.001    0.000 -0.000 -0.000   -0.000  0.000 -0.000
 C         -0.057 -0.038 -0.058   -0.000 -0.000 -0.000    0.000  0.000 -0.000
 H          0.037 -0.146  0.304   -0.000 -0.000 -0.000    0.000 -0.000  0.000
 H          0.218  0.038 -0.110    0.000 -0.000 -0.000    0.000 -0.000 -0.000
 H          0.433  0.555  0.504   -0.000 -0.000 -0.000    0.000 -0.000 -0.000
 C         -0.000 -0.000  0.000    0.000 -0.000 -0.001    0.000 -0.000  0.000
 H          0.000 -0.000 -0.000   -0.003  0.007  0.009   -0.001  0.000  0.000
 H         -0.000  0.000 -0.000    0.001 -0.001  0.003   -0.000 -0.000 -0.000
 C         -0.000 -0.000  0.000   -0.000 -0.000  0.000   -0.000  0.000 -0.000
 C         -0.000 -0.000  0.000    0.000 -0.000 -0.000   -0.000  0.000  0.000
 C         -0.000 -0.000  0.000    0.000  0.000 -0.000   -0.000 -0.001  0.000
 H         -0.000  0.000 -0.000   -0.000 -0.000  0.000    0.000  0.001 -0.002
 H         -0.000 -0.000 -0.000    0.001  0.000  0.000    0.005  0.005 -0.000
 C         -0.000  0.000 -0.000   -0.000 -0.000  0.000    0.000 -0.000 -0.001
 O         -0.000  0.000  0.000    0.000 -0.000 -0.000    0.001  0.002  0.000
 N         -0.000  0.000  0.000   -0.000 -0.000 -0.000   -0.028 -0.055 -0.039
 H         -0.000  0.000 -0.000    0.001  0.003  0.002    0.361  0.749  0.551
 C         -0.000  0.000  0.000   -0.000  0.000  0.000    0.000  0.000  0.000
 O         -0.000  0.000  0.000    0.000 -0.000 -0.000    0.000 -0.000 -0.000
 N         -0.000  0.000  0.000    0.000 -0.000 -0.000    0.000 -0.000 -0.000
 C         -0.000  0.000 -0.000   -0.000 -0.000  0.000    0.000 -0.000  0.000
 C          0.000  0.000 -0.000    0.000 -0.000 -0.000   -0.000  0.000 -0.000
 H         -0.000  0.000  0.000   -0.000  0.000  0.000   -0.000  0.000  0.000
 H          0.000 -0.000 -0.000    0.000  0.000  0.000    0.000 -0.005  0.000
 H         -0.000 -0.000  0.000    0.000  0.000 -0.000   -0.000  0.001 -0.000
 C          0.000  0.000  0.000   -0.000 -0.000  0.000   -0.000 -0.000 -0.000
 H         -0.000  0.000 -0.000   -0.000  0.000 -0.000   -0.000  0.000 -0.000
 H         -0.000 -0.000 -0.000    0.000  0.000 -0.000   -0.000 -0.000  0.000
 C          0.000 -0.000  0.000    0.000  0.000  0.000   -0.000  0.000 -0.000
 H         -0.000  0.000  0.000    0.000 -0.000 -0.000   -0.000 -0.000  0.000
 H         -0.000  0.000 -0.000    0.000  0.000  0.000    0.001 -0.000  0.002
 C          0.000 -0.000 -0.000   -0.000 -0.000  0.000    0.000 -0.000 -0.000
 H         -0.000  0.000  0.000    0.000  0.000 -0.000   -0.002  0.001  0.002
 H         -0.000 -0.000 -0.000   -0.000  0.000 -0.000   -0.000  0.000  0.001
 C          0.000  0.000 -0.000   -0.000  0.000  0.000   -0.000 -0.000  0.000
 H         -0.000 -0.000 -0.000   -0.000 -0.000  0.000   -0.001 -0.000 -0.001
 H         -0.000  0.000  0.000    0.000 -0.000 -0.000   -0.000 -0.000  0.001
 C         -0.000 -0.000  0.000   -0.000  0.000  0.000    0.000 -0.000 -0.000
 H         -0.000  0.000 -0.000    0.000 -0.000  0.000   -0.005  0.007  0.001
 C         -0.001  0.000  0.000   -0.000 -0.000 -0.000   -0.000  0.000  0.000
 H          0.000 -0.001 -0.007   -0.000  0.000  0.000   -0.000  0.000 -0.000
 H          0.008 -0.002  0.003   -0.000  0.000 -0.000    0.000  0.000  0.000
 C         -0.010  0.020  0.004    0.000 -0.000  0.000   -0.000  0.000 -0.000
 H          0.100 -0.229  0.012    0.000 -0.000 -0.000    0.000 -0.000  0.000
 H          0.015 -0.017 -0.059    0.000 -0.000 -0.000   -0.000  0.000  0.000
 C         -0.001 -0.000 -0.000    0.000  0.000  0.000   -0.000  0.000 -0.000
 H          0.006 -0.001  0.001   -0.003  0.000 -0.000    0.000 -0.000 -0.000
 H          0.000  0.000  0.001   -0.000 -0.000 -0.001   -0.000  0.000  0.000
 C         -0.000 -0.000 -0.000   -0.000  0.000 -0.000   -0.000  0.000  0.000
 H          0.000  0.000  0.000    0.001 -0.002 -0.001   -0.000  0.000  0.000
 H          0.001  0.000  0.000   -0.001  0.001 -0.000    0.000 -0.000  0.000
 O          0.000 -0.000  0.000    0.001 -0.000 -0.000   -0.000  0.000  0.000
 O         -0.000  0.000  0.000    0.000 -0.000 -0.000   -0.000 -0.001 -0.000
 O         -0.000  0.000 -0.000    0.000  0.000 -0.000    0.000 -0.000  0.000
 Fe         0.000 -0.000 -0.000    0.000 -0.000  0.000    0.000  0.000 -0.000
 O         -0.000  0.000 -0.000   -0.000  0.000  0.000    0.000 -0.000 -0.000
 O          0.000 -0.000  0.000   -0.000  0.000 -0.000    0.000  0.000  0.000
 O          0.000  0.000  0.000   -0.000  0.000  0.000    0.000 -0.000 -0.000
 O         -0.000  0.000  0.000    0.000  0.000 -0.000   -0.000 -0.000  0.000
 O         -0.000  0.000 -0.000    0.000  0.000  0.000    0.000 -0.000 -0.000
 O         -0.000  0.000 -0.000    0.000  0.000 -0.000   -0.000 -0.000  0.000
 TransDip  -0.069 -0.020 -0.057    0.079  0.290  0.449    0.413  0.258  0.048

 STANDARD THERMODYNAMIC QUANTITIES AT   298.15 K  AND     1.00 ATM

   This Molecule has 10 Imaginary Frequencies
   Zero point vibrational energy:      336.368 kcal/mol

   Atom    1 Element N  Has Mass   14.00307
   Atom    2 Element C  Has Mass   12.00000
   Atom    3 Element H  Has Mass    1.00783
   Atom    4 Element N  Has Mass   14.00307
   Atom    5 Element H  Has Mass    1.00783
   Atom    6 Element C  Has Mass   12.00000
   Atom    7 Element O  Has Mass   15.99491
   Atom    8 Element C  Has Mass   12.00000
   Atom    9 Element O  Has Mass   15.99491
   Atom   10 Element C  Has Mass   12.00000
   Atom   11 Element C  Has Mass   12.00000
   Atom   12 Element H  Has Mass    1.00783
   Atom   13 Element H  Has Mass    1.00783
   Atom   14 Element H  Has Mass    1.00783
   Atom   15 Element C  Has Mass   12.00000
   Atom   16 Element H  Has Mass    1.00783
   Atom   17 Element H  Has Mass    1.00783
   Atom   18 Element C  Has Mass   12.00000
   Atom   19 Element C  Has Mass   12.00000
   Atom   20 Element C  Has Mass   12.00000
   Atom   21 Element H  Has Mass    1.00783
   Atom   22 Element H  Has Mass    1.00783
   Atom   23 Element C  Has Mass   12.00000
   Atom   24 Element O  Has Mass   15.99491
   Atom   25 Element N  Has Mass   14.00307
   Atom   26 Element H  Has Mass    1.00783
   Atom   27 Element C  Has Mass   12.00000
   Atom   28 Element O  Has Mass   15.99491
   Atom   29 Element N  Has Mass   14.00307
   Atom   30 Element C  Has Mass   12.00000
   Atom   31 Element C  Has Mass   12.00000
   Atom   32 Element H  Has Mass    1.00783
   Atom   33 Element H  Has Mass    1.00783
   Atom   34 Element H  Has Mass    1.00783
   Atom   35 Element C  Has Mass   12.00000
   Atom   36 Element H  Has Mass    1.00783
   Atom   37 Element H  Has Mass    1.00783
   Atom   38 Element C  Has Mass   12.00000
   Atom   39 Element H  Has Mass    1.00783
   Atom   40 Element H  Has Mass    1.00783
   Atom   41 Element C  Has Mass   12.00000
   Atom   42 Element H  Has Mass    1.00783
   Atom   43 Element H  Has Mass    1.00783
   Atom   44 Element C  Has Mass   12.00000
   Atom   45 Element H  Has Mass    1.00783
   Atom   46 Element H  Has Mass    1.00783
   Atom   47 Element C  Has Mass   12.00000
   Atom   48 Element H  Has Mass    1.00783
   Atom   49 Element C  Has Mass   12.00000
   Atom   50 Element H  Has Mass    1.00783
   Atom   51 Element H  Has Mass    1.00783
   Atom   52 Element C  Has Mass   12.00000
   Atom   53 Element H  Has Mass    1.00783
   Atom   54 Element H  Has Mass    1.00783
   Atom   55 Element C  Has Mass   12.00000
   Atom   56 Element H  Has Mass    1.00783
   Atom   57 Element H  Has Mass    1.00783
   Atom   58 Element C  Has Mass   12.00000
   Atom   59 Element H  Has Mass    1.00783
   Atom   60 Element H  Has Mass    1.00783
   Atom   61 Element O  Has Mass   15.99491
   Atom   62 Element O  Has Mass   15.99491
   Atom   63 Element O  Has Mass   15.99491
   Atom   64 Element Fe Has Mass   55.93490
   Atom   65 Element O  Has Mass   15.99491
   Atom   66 Element O  Has Mass   15.99491
   Atom   67 Element O  Has Mass   15.99491
   Atom   68 Element O  Has Mass   15.99491
   Atom   69 Element O  Has Mass   15.99491
   Atom   70 Element O  Has Mass   15.99491
   Molecular Mass:   614.115910 amu
   Principal axes and moments of inertia in amu*Bohr^2:
                             1           2           3
    Eigenvalues --    14763.95558 27254.73966 32686.82203
          X               0.99992    -0.01249     0.00351
          Y               0.01255     0.99980    -0.01540
          Z              -0.00332     0.01544     0.99988
   Rotational Symmetry Number is   1
   The Molecule is an Asymmetric Top
   Translational Enthalpy:        0.889 kcal/mol
   Rotational Enthalpy:           0.889 kcal/mol
   Vibrational Enthalpy:        355.443 kcal/mol
   gas constant (RT):             0.592 kcal/mol
   Translational Entropy:        45.128  cal/mol.K
   Rotational Entropy:           37.817  cal/mol.K
   Vibrational Entropy:         123.584  cal/mol.K

   Total Enthalpy:              357.813 kcal/mol
   Total Entropy:               206.529  cal/mol.K
 Total job time:  71710.05s(wall), 1238200.45s(cpu) 
 Wed May 29 18:49:59 2024

        *************************************************************
        *                                                           *
        *  Thank you very much for using Q-Chem.  Have a nice day.  *
        *                                                           *
        *************************************************************


