
Running Job 1 of 1 C_FeAB_N_ccL_3sextet_SfS_tpsshD3bj_ccpvdz_pcmH2O_OPT_2.in
qchem C_FeAB_N_ccL_3sextet_SfS_tpsshD3bj_ccpvdz_pcmH2O_OPT_2.in_2533173.0 /data/scratch/C_FeAB_N_ccL_3sextet_SfS_tpsshD3bj_ccpvdz_pcmH2O_OPT_220240610120815/ 0
/opt/qchem/6.0.1/exe/qcprog.exe_s C_FeAB_N_ccL_3sextet_SfS_tpsshD3bj_ccpvdz_pcmH2O_OPT_2.in_2533173.0 /data/scratch/C_FeAB_N_ccL_3sextet_SfS_tpsshD3bj_ccpvdz_pcmH2O_OPT_220240610120815/
                  Welcome to Q-Chem
     A Quantum Leap Into The Future Of Chemistry


 Q-Chem 6.0, Q-Chem, Inc., Pleasanton, CA (2022)

 E. Epifanovsky,  A. T. B. Gilbert,  Xintian Feng,  Joonho Lee,  Yuezhi Mao,  
 N. Mardirossian,  P. Pokhilko,  A. White,  M. Wormit,  M. P. Coons,  
 A. L. Dempwolff,  Zhengting Gan,  D. Hait,  P. R. Horn,  L. D. Jacobson,  
 I. Kaliman,  J. Kussmann,  A. W. Lange,  Ka Un Lao,  D. S. Levine,  Jie Liu,  
 S. C. McKenzie,  A. F. Morrison,  K. Nanda,  F. Plasser,  D. R. Rehn,  
 M. L. Vidal,  Zhi-Qiang You,  Ying Zhu,  B. Alam,  B. Albrecht,  
 A. Aldossary,  E. Alguire,  J. H. Andersen,  V. Athavale,  D. Barton,  
 K. Begam,  A. Behn,  N. Bellonzi,  Y. A. Bernard,  E. J. Berquist,  
 H. Burton,  A. Carreras,  K. Carter-Fenk,  Romit Chakraborty,  
 Chandrima Chakravarty,  Junhan Chen,  A. D. Chien,  K. D. Closser,  
 V. Cofer-Shabica,  L. Cunha,  S. Dasgupta,  Jia Deng,  M. de Wergifosse,  
 M. Diedenhofen,  Hainam Do,  S. Ehlert,  Po-Tung Fang,  S. Fatehi,  
 Qingguo Feng,  T. Friedhoff,  B. Ganoe,  J. Gayvert,  Qinghui Ge,  
 G. Gidofalvi,  M. Goldey,  J. Gomes,  C. Gonzalez-Espinoza,  S. Gulania,  
 A. Gunina,  J. A. Gyamfi,  M. W. D. Hanson-Heine,  P. H. P. Harbach,  
 A. W. Hauser,  M. F. Herbst,  M. Hernandez Vera,  M. Hodecker,  
 Z. C. Holden,  S. Houck,  Xunkun Huang,  Kerwin Hui,  B. C. Huynh,  
 K. Ikeda,  M. Ivanov,  Hyunjun Ji,  Zuxin Jin,  Hanjie Jiang,  B. Kaduk,  
 S. Kaehler,  R. Kang,  K. Khistyaev,  Jaehoon Kim,  Yongbin Kim,  
 P. Klunzinger,  Z. Koczor-Benda,  Joong Hoon Koh,  D. Kosenkov,  
 Saikiran Kotaru,  L. Koulias,  T. Kowalczyk,  C. M. Krauter,  K. Kue,  
 A. Kunitsa,  T. Kus,  A. Landau,  K. V. Lawler,  D. Lefrancois,  S. Lehtola,  
 Rain Li,  Shaozhi Li,  Yi-Pei Li,  Jiashu Liang,  M. Liebenthal,  
 Hung-Hsuan Lin,  You-Sheng Lin,  Fenglai Liu,  Kuan-Yu Liu,  
 M. Loipersberger,  A. Luenser,  C. Malbon,  A. Manjanath,  P. Manohar,  
 E. Mansoor,  S. F. Manzer,  Shan-Ping Mao,  A. V. Marenich,  T. Markovich,  
 S. Mason,  F. Matz,  S. A. Maurer,  P. F. McLaughlin,  M. F. S. J. Menger,  
 J.-M. Mewes,  S. A. Mewes,  P. Morgante,  Mohammad Mostafanejad,  
 J. W. Mullinax,  K. J. Oosterbaan,  G. Paran,  V. Parravicini,  
 Alexander C. Paul,  Suranjan K. Paul,  F. Pavosevic,  Zheng Pei,  S. Prager,  
 E. I. Proynov,  E. Ramos,  B. Rana,  A. E. Rask,  A. Rettig,  R. M. Richard,  
 F. Rob,  E. Rossomme,  T. Scheele,  M. Scheurer,  M. Schneider,  
 P. E. Schneider,  N. Sergueev,  S. M. Sharada,  Hengyuan Shen,  
 W. Skomorowski,  D. W. Small,  C. J. Stein,  Yingli Su,  Yu-Chuan Su,  
 E. J. Sundstrom,  Zhen Tao,  J. Thirman,  Hung-Yi Tsai,  T. Tsuchimochi,  
 N. M. Tubman,  C. Utku,  S. P. Veccham,  O. Vydrov,  J. Wenzel,  
 Jonathan Wong,  J. Witte,  A. Yamada,  Chou-Hsun Yang,  Kun Yao,  
 S. Yeganeh,  S. R. Yost,  A. Zech,  F. Zeller,  Igor Ying Zhang,  
 Xing Zhang,  Yu Zhang,  D. Zuev,  A. Aspuru-Guzik,  A. T. Bell,  
 N. A. Besley,  K. B. Bravaya,  B. R. Brooks,  D. Casanova,  Jeng-Da Chai,  
 Hsing-Ta Chen,  S. Coriani,  C. J. Cramer,  A. E. DePrince, III,  
 R. A. DiStasio Jr.,  A. Dreuw,  B. D. Dunietz,  T. R. Furlani,  
 W. A. Goddard III,  S. Grimme,  S. Hammes-Schiffer,  T. Head-Gordon,  
 W. J. Hehre,  Chao-Ping Hsu,  T.-C. Jagau,  Yousung Jung,  A. Klamt,  
 Jing Kong,  D. S. Lambrecht,  Xiangyuan Li,  WanZhen Liang,  N. J. Mayhall,  
 C. W. McCurdy,  J. B. Neaton,  T. Neudecker,  C. Ochsenfeld,  
 J. A. Parkhill,  R. Peverati,  V. A. Rassolov,  Haisheng Ren,  Yihan Shao,  
 L. V. Slipchenko,  R. P. Steele,  J. E. Subotnik,  A. J. W. Thom,  
 A. Tkatchenko,  D. G. Truhlar,  T. Van Voorhis,  Fan Wang,  
 T. A. Wesolowski,  K. B. Whaley,  H. L. Woodcock III,  P. M. Zimmerman,  
 S. Faraji,  P. M. W. Gill,  M. Head-Gordon,  J. M. Herbert,  A. I. Krylov

 Contributors to earlier versions of Q-Chem not listed above: 
 R. D. Adamson,  B. Austin,  R. Baer,  J. Baker,  G. J. O. Beran,  
 K. Brandhorst,  S. T. Brown,  E. F. C. Byrd,  Arup K. Chakraborty,  
 G. K. L. Chan,  Chun-Min Chang,  Yunqing Chen,  C.-L. Cheng,  
 Siu Hung Chien,  D. M. Chipman,  D. L. Crittenden,  H. Dachsel,  
 R. J. Doerksen,  A. D. Dutoi,  R. G. Edgar,  J. Fosso-Tande,  
 L. Fusti-Molnar,  D. Ghosh,  A. Ghysels,  A. Golubeva-Zadorozhnaya,  
 J. Gonthier,  M. S. Gordon,  S. R. Gwaltney,  G. Hawkins,  J. E. Herr,  
 A. Heyden,  S. Hirata,  E. G. Hohenstein,  G. Kedziora,  F. J. Keil,  
 C. Kelley,  Jihan Kim,  R. A. King,  R. Z. Khaliullin,  P. P. Korambath,  
 W. Kurlancheek,  A. Laurent,  A. M. Lee,  M. S. Lee,  S. V. Levchenko,  
 Ching Yeh Lin,  D. Liotard,  E. Livshits,  R. C. Lochan,  I. Lotan,  
 L. A. Martinez-Martinez,  P. E. Maslen,  N. Nair,  D. P. O'Neill,  
 D. Neuhauser,  E. Neuscamman,  C. M. Oana,  R. Olivares-Amaya,  R. Olson,  
 T. M. Perrine,  B. Peters,  P. A. Pieniazek,  A. Prociuk,  Y. M. Rhee,  
 J. Ritchie,  M. A. Rohrdanz,  E. Rosta,  N. J. Russ,  H. F. Schaefer III,  
 M. W. Schmidt,  N. E. Schultz,  S. Sharma,  N. Shenvi,  C. D. Sherrill,  
 A. C. Simmonett,  A. Sodt,  T. Stein,  D. Stuck,  K. S. Thanthiriwatte,  
 V. Vanovschi,  L. Vogt,  Tao Wang,  A. Warshel,  M. A. Watson,  
 C. F. Williams,  Q. Wu,  X. Xu,  Jun Yang,  W. Zhang,  Yan Zhao

   Please cite Q-Chem as follows:
  "Software for the frontiers of quantum chemistry:
   An overview of developments in the Q-Chem 5 package"
   J. Chem. Phys. 155, 084801 (2021)
   https://doi.org/10.1063/5.0055522 (open access)

 Q-Chem 6.0.2 for Intel X86 EM64T Linux

 Parts of Q-Chem use Armadillo 9.900.5 (Nocturnal Misbehaviour).
 http://arma.sourceforge.net/

 Q-Chem begins on Mon Jun 10 12:08:16 2024  

 Host: 
0

     Scratch files written to /data/scratch/C_FeAB_N_ccL_3sextet_SfS_tpsshD3bj_ccpvdz_pcmH2O_OPT_220240610120815//
 Dec722 |scratch|qcdevops|jenkins|workspace|build_RNUM 8907   
 Processing $rem in /opt/qchem/6.0.1/config/preferences:
 Processing $rem in /home/sgardner/.qchemrc:
 Symmetry turned off for PCM/SM12/SMD calculation

 Checking the input file for inconsistencies... 	...done.

--------------------------------------------------------------
User input:
--------------------------------------------------------------
$molecule
-3 6
C   -1.1849119    1.7819306   -1.8843326
C   -4.3787560   -2.0292120    0.2785619
H   -5.0704015   -2.5999664    0.9263630
N   -3.0181787   -2.1944850    0.7667202
H   -2.4346101   -2.6758162    0.0759945
C   -4.4373766   -2.6635966   -1.1469127
O   -5.5534596   -2.6041225   -1.7270981
C   -2.5425591   -1.8389608    1.9765511
O   -3.2326218   -1.2509446    2.8335959
N   -1.9687464    2.3820601   -0.9893650
C   -1.0961519   -2.2206358    2.2426309
H   -0.7875510   -3.0618914    1.6030573
H   -1.0242055   -2.5296583    3.2954214
C   -0.1015921   -1.0604248    2.0122789
C   -0.2564878    0.0645046    3.0772000
C    1.3541578   -1.5956503    2.2352644
H    1.3814015   -2.1778116    3.1674977
H    2.0156106   -0.7226848    2.3450657
C    1.9026363   -2.4701685    1.1117811
O    1.8364723   -3.7170175    1.1415574
N    2.4769768   -1.7628546    0.1192333
H    2.4502593   -0.7389651    0.2321568
C    4.8780164   -2.0704998   -0.5239592
O    5.7021906   -2.4529058   -1.4021365
C    2.3790086    3.0584140   -0.1983031
N    2.8992132    1.8319812   -0.1153049
C    4.1227867    1.2642102   -0.6978239
H    4.4124582    0.4449605   -0.0227574
H    4.9095359    2.0305675   -0.6605114
C    3.1256878    4.1698644   -0.8760533
H    3.1737386    5.0305733   -0.1919839
H    4.1408923    3.8899917   -1.1806353
C    3.9450307    0.7697212   -2.1442610
H    3.7920474    1.6617660   -2.7760172
H    4.9073489    0.3264515   -2.4553775
C    2.7847355   -0.2106835   -2.4239809
H    1.9101306    0.0828020   -1.8237558
H    2.4815242   -0.0500452   -3.4734842
C    3.0366699   -1.7261836   -2.2907757
H    2.1263299   -2.2296843   -2.6620404
H    3.8694934   -2.0291405   -2.9457197
C    3.3681053   -2.2875613   -0.8945258
H    3.2149504   -3.3784840   -0.9218099
C   -4.2870271    1.8273613   -0.3681381
H   -4.1835279    2.0576637    0.7047967
H   -5.3288846    2.0589569   -0.6498605
C   -1.5678440    1.6905665   -3.3351046
H   -2.0994247    2.5832742   -3.6895185
H   -0.6461785    1.5612704   -3.9173088
C   -3.9766821    0.3463832   -0.5915190
H   -2.9228386    0.1638275   -0.3209705
H   -4.0871826    0.0911075   -1.6613989
C   -4.8602562   -0.5685744    0.2560947
H   -4.8852956   -0.1942052    1.2916116
H   -5.8913028   -0.5780619   -0.1326516
O   -3.3625867   -3.1701586   -1.5898867
O    5.1427190   -1.5549902    0.6003827
O   -0.2598391   -0.5187900    0.7364151
Fe    0.1555953    1.3541029    0.5993932
O   -0.1557053    1.2757157    2.5896008
O   -0.0812912    1.2783441   -1.4816019
O   -1.5562550    2.3680914    0.3111228
O    1.2232284    3.2593969    0.3043976
O   -0.3760529   -0.1933324    4.2814547
O    2.1086249    0.9127167    0.5103063
H   -2.2115845    0.8112107   -3.5004775
H    2.5580475    4.4817204   -1.7669908
C   -3.3690745    2.7620538   -1.1654574
H   -3.4836387    3.8038938   -0.8273849
H   -3.5955124    2.7202708   -2.2381645
$end

$rem
BASIS  =  gen
CORRELATION  =  TPSS
DFT_D  =  D3_BJ
EXCHANGE  =  TPSSH
GUI  =  2
JOB_TYPE  =  Optimization
SCF_CONVERGENCE  =  8
SOLVENT_METHOD  =  PCM
GEOM_OPT_MAX_CYCLES = 200
$end

$pcm
THEORY  CPCM
$end

$solvent
DIELECTRIC  78.39
$end

$van_der_waals
26   2.44
$end

!----------------------------------------------------------------------
! Basis Set Exchange
! Basis set: cc-pVDZ
!----------------------------------------------------------------------

$rem
BASIS GEN
PURECART 11
$end

$basis
H     0
S   4   1.00
1.301000D+01           1.968500D-02
1.962000D+00           1.379770D-01
4.446000D-01           4.781480D-01
1.220000D-01           5.012400D-01
S   1   1.00
1.220000D-01           1.000000D+00
P   1   1.00
7.270000D-01           1.0000000
****
C     0
S   9   1.00
6.665000D+03           6.920000D-04
1.000000D+03           5.329000D-03
2.280000D+02           2.707700D-02
6.471000D+01           1.017180D-01
2.106000D+01           2.747400D-01
7.495000D+00           4.485640D-01
2.797000D+00           2.850740D-01
5.215000D-01           1.520400D-02
1.596000D-01          -3.191000D-03
S   9   1.00
6.665000D+03          -1.460000D-04
1.000000D+03          -1.154000D-03
2.280000D+02          -5.725000D-03
6.471000D+01          -2.331200D-02
2.106000D+01          -6.395500D-02
7.495000D+00          -1.499810D-01
2.797000D+00          -1.272620D-01
5.215000D-01           5.445290D-01
1.596000D-01           5.804960D-01
S   1   1.00
1.596000D-01           1.000000D+00
P   4   1.00
9.439000D+00           3.810900D-02
2.002000D+00           2.094800D-01
5.456000D-01           5.085570D-01
1.517000D-01           4.688420D-01
P   1   1.00
1.517000D-01           1.000000D+00
D   1   1.00
5.500000D-01           1.0000000
****
N     0
S   9   1.00
9.046000D+03           7.000000D-04
1.357000D+03           5.389000D-03
3.093000D+02           2.740600D-02
8.773000D+01           1.032070D-01
2.856000D+01           2.787230D-01
1.021000D+01           4.485400D-01
3.838000D+00           2.782380D-01
7.466000D-01           1.544000D-02
2.248000D-01          -2.864000D-03
S   9   1.00
9.046000D+03          -1.530000D-04
1.357000D+03          -1.208000D-03
3.093000D+02          -5.992000D-03
8.773000D+01          -2.454400D-02
2.856000D+01          -6.745900D-02
1.021000D+01          -1.580780D-01
3.838000D+00          -1.218310D-01
7.466000D-01           5.490030D-01
2.248000D-01           5.788150D-01
S   1   1.00
2.248000D-01           1.000000D+00
P   4   1.00
1.355000D+01           3.991900D-02
2.917000D+00           2.171690D-01
7.973000D-01           5.103190D-01
2.185000D-01           4.622140D-01
P   1   1.00
2.185000D-01           1.000000D+00
D   1   1.00
8.170000D-01           1.0000000
****
O     0
S   9   1.00
1.172000D+04           7.100000D-04
1.759000D+03           5.470000D-03
4.008000D+02           2.783700D-02
1.137000D+02           1.048000D-01
3.703000D+01           2.830620D-01
1.327000D+01           4.487190D-01
5.025000D+00           2.709520D-01
1.013000D+00           1.545800D-02
3.023000D-01          -2.585000D-03
S   9   1.00
1.172000D+04          -1.600000D-04
1.759000D+03          -1.263000D-03
4.008000D+02          -6.267000D-03
1.137000D+02          -2.571600D-02
3.703000D+01          -7.092400D-02
1.327000D+01          -1.654110D-01
5.025000D+00          -1.169550D-01
1.013000D+00           5.573680D-01
3.023000D-01           5.727590D-01
S   1   1.00
3.023000D-01           1.000000D+00
P   4   1.00
1.770000D+01           4.301800D-02
3.854000D+00           2.289130D-01
1.046000D+00           5.087280D-01
2.753000D-01           4.605310D-01
P   1   1.00
2.753000D-01           1.000000D+00
D   1   1.00
1.185000D+00           1.0000000
****
Fe     0
S   20   1.00
4.316265D+06           8.048803D-06
6.463424D+05           6.258306D-05
1.470897D+05           3.290239D-04
4.166152D+04           1.387355D-03
1.359077D+04           5.023256D-03
4.905750D+03           1.610140D-02
1.912746D+03           4.590034D-02
7.926043D+02           1.136154D-01
3.448065D+02           2.283869D-01
1.558999D+02           3.221159D-01
7.223091D+01           2.383661D-01
3.272506D+01           7.404667D-02
1.566762D+01           9.214197D-02
7.503483D+00           9.339790D-02
3.312223D+00           1.573965D-02
1.558471D+00          -4.186682D-04
6.839140D-01           5.376318D-05
1.467570D-01          -3.816654D-05
7.058300D-02           4.319603D-05
3.144900D-02          -3.401019D-06
S   20   1.00
4.316265D+06          -4.155954D-06
6.463424D+05          -3.231401D-05
1.470897D+05          -1.699525D-04
4.166152D+04          -7.171369D-04
1.359077D+04          -2.603625D-03
4.905750D+03          -8.399109D-03
1.912746D+03          -2.434109D-02
7.926043D+02          -6.251948D-02
3.448065D+02          -1.365929D-01
1.558999D+02          -2.312707D-01
7.223091D+01          -2.383734D-01
3.272506D+01           3.123837D-02
1.566762D+01           5.086818D-01
7.503483D+00           4.987695D-01
3.312223D+00           9.033552D-02
1.558471D+00          -6.005337D-03
6.839140D-01           2.312454D-04
1.467570D-01          -5.643680D-04
7.058300D-02           4.992260D-04
3.144900D-02          -1.015293D-04
S   20   1.00
4.316265D+06           9.532178D-07
6.463424D+05           7.414605D-06
1.470897D+05           3.898393D-05
4.166152D+04           1.647152D-04
1.359077D+04           5.985980D-04
4.905750D+03           1.942390D-03
1.912746D+03           5.687237D-03
7.926043D+02           1.501329D-02
3.448065D+02           3.452455D-02
1.558999D+02           6.495820D-02
7.223091D+01           7.716194D-02
3.272506D+01          -1.873411D-02
1.566762D+01          -3.009185D-01
7.503483D+00          -4.554661D-01
3.312223D+00           1.286463D-01
1.558471D+00           7.183316D-01
6.839140D-01           4.051743D-01
1.467570D-01           2.168227D-02
7.058300D-02          -8.343566D-03
3.144900D-02           3.658979D-03
S   20   1.00
4.316265D+06          -2.063008D-07
6.463424D+05          -1.604169D-06
1.470897D+05          -8.438437D-06
4.166152D+04          -3.563151D-05
1.359077D+04          -1.295998D-04
4.905750D+03          -4.201534D-04
1.912746D+03          -1.231954D-03
7.926043D+02          -3.248922D-03
3.448065D+02          -7.493717D-03
1.558999D+02          -1.410102D-02
7.223091D+01          -1.691600D-02
3.272506D+01           4.218996D-03
1.566762D+01           6.833810D-02
7.503483D+00           1.098201D-01
3.312223D+00          -4.009005D-02
1.558471D+00          -2.174739D-01
6.839140D-01          -2.465135D-01
1.467570D-01           2.731435D-01
7.058300D-02           5.748321D-01
3.144900D-02           3.012713D-01
S   20   1.00
4.316265D+06          -4.009367D-07
6.463424D+05          -3.189255D-06
1.470897D+05          -1.623079D-05
4.166152D+04          -7.157920D-05
1.359077D+04          -2.463958D-04
4.905750D+03          -8.544907D-04
1.912746D+03          -2.307593D-03
7.926043D+02          -6.728292D-03
3.448065D+02          -1.366165D-02
1.558999D+02          -3.062240D-02
7.223091D+01          -2.631137D-02
3.272506D+01          -9.760183D-03
1.566762D+01           1.801906D-01
7.503483D+00           1.529634D-01
3.312223D+00           5.505413D-02
1.558471D+00          -9.551364D-01
6.839140D-01           2.586813D-01
1.467570D-01           1.834049D+00
7.058300D-02          -9.333240D-01
3.144900D-02          -6.981605D-01
S   1   1.00
3.144900D-02           1.000000D+00
P   16   1.00
1.774569D+04           4.100000D-05
4.200721D+03           3.690000D-04
1.364429D+03           2.129000D-03
5.220806D+02           9.369000D-03
2.214595D+02           3.309700D-02
1.009096D+02           9.443100D-02
4.840115D+01           2.080770D-01
2.398536D+01           3.323330D-01
1.218250D+01           3.329870D-01
6.242298D+00           1.568430D-01
3.110944D+00           2.154900D-02
1.509958D+00          -2.095000D-03
7.108450D-01          -1.739000D-03
2.731900D-01          -3.000000D-04
1.042330D-01           2.900000D-05
3.829100D-02          -1.100000D-05
P   16   1.00
1.774569D+04          -1.500000D-05
4.200721D+03          -1.300000D-04
1.364429D+03          -7.510000D-04
5.220806D+02          -3.329000D-03
2.214595D+02          -1.191200D-02
1.009096D+02          -3.493300D-02
4.840115D+01          -7.998900D-02
2.398536D+01          -1.346360D-01
1.218250D+01          -1.385980D-01
6.242298D+00           3.027800D-02
3.110944D+00           3.332160D-01
1.509958D+00           4.561530D-01
7.108450D-01           2.850510D-01
2.731900D-01           4.614400D-02
1.042330D-01          -3.249000D-03
3.829100D-02           1.357000D-03
P   16   1.00
1.774569D+04           5.000000D-06
4.200721D+03           4.200000D-05
1.364429D+03           2.410000D-04
5.220806D+02           1.085000D-03
2.214595D+02           3.831000D-03
1.009096D+02           1.142300D-02
4.840115D+01           2.579200D-02
2.398536D+01           4.481800D-02
1.218250D+01           4.459800D-02
6.242298D+00          -1.117700D-02
3.110944D+00          -1.381340D-01
1.509958D+00          -1.882850D-01
7.108450D-01          -1.073990D-01
2.731900D-01           4.448630D-01
1.042330D-01           6.402390D-01
3.829100D-02           6.445700D-02
P   16   1.00
1.774569D+04           3.000000D-06
4.200721D+03           2.900000D-05
1.364429D+03           1.650000D-04
5.220806D+02           7.340000D-04
2.214595D+02           2.626000D-03
1.009096D+02           7.725000D-03
4.840115D+01           1.773300D-02
2.398536D+01           3.005500D-02
1.218250D+01           3.109400D-02
6.242298D+00          -1.004800D-02
3.110944D+00          -8.830600D-02
1.509958D+00          -1.298240D-01
7.108450D-01          -7.693700D-02
2.731900D-01           2.126610D-01
1.042330D-01           5.730610D-01
3.829100D-02           3.696510D-01
P   1   1.00
3.829100D-02           1.000000D+00
D   8   1.00
1.133440D+02           3.530000D-03
3.364140D+01           2.578400D-02
1.233100D+01           9.911900D-02
4.994780D+00           2.390730D-01
2.072800D+00           3.571990D-01
8.307530D-01           3.621880D-01
3.091780D-01           2.364610D-01
1.001300D-01           6.011800D-02
D   8   1.00
1.133440D+02          -3.890000D-03
3.364140D+01          -2.844200D-02
1.233100D+01          -1.124290D-01
4.994780D+00          -2.742570D-01
2.072800D+00          -3.155460D-01
8.307530D-01           5.710900D-02
3.091780D-01           5.636040D-01
1.001300D-01           3.846370D-01
D   1   1.00
1.001300D-01           1.000000D+00
F   2   1.00
3.224300D+00           4.222490D-01
7.758000D-01           7.714680D-01
****
$end


--------------------------------------------------------------
 Adding empirical dispersion correction 
 ----------------------------------------------------------------
 Doing -D3(BJ) with
 s6  =   1.00000
 s8  =   2.23820
 a1  =   0.45290
 a2  =   4.65500
 -D3 energy without 3body term =     -0.1263776336 hartrees
 ----------------------------------------------------------------
             Standard Nuclear Orientation (Angstroms)
    I     Atom           X                Y                Z
 ----------------------------------------------------------------
    1      C      -1.1849119000     1.7819306000    -1.8843326000
    2      C      -4.3787560000    -2.0292120000     0.2785619000
    3      H      -5.0704015000    -2.5999664000     0.9263630000
    4      N      -3.0181787000    -2.1944850000     0.7667202000
    5      H      -2.4346101000    -2.6758162000     0.0759945000
    6      C      -4.4373766000    -2.6635966000    -1.1469127000
    7      O      -5.5534596000    -2.6041225000    -1.7270981000
    8      C      -2.5425591000    -1.8389608000     1.9765511000
    9      O      -3.2326218000    -1.2509446000     2.8335959000
   10      N      -1.9687464000     2.3820601000    -0.9893650000
   11      C      -1.0961519000    -2.2206358000     2.2426309000
   12      H      -0.7875510000    -3.0618914000     1.6030573000
   13      H      -1.0242055000    -2.5296583000     3.2954214000
   14      C      -0.1015921000    -1.0604248000     2.0122789000
   15      C      -0.2564878000     0.0645046000     3.0772000000
   16      C       1.3541578000    -1.5956503000     2.2352644000
   17      H       1.3814015000    -2.1778116000     3.1674977000
   18      H       2.0156106000    -0.7226848000     2.3450657000
   19      C       1.9026363000    -2.4701685000     1.1117811000
   20      O       1.8364723000    -3.7170175000     1.1415574000
   21      N       2.4769768000    -1.7628546000     0.1192333000
   22      H       2.4502593000    -0.7389651000     0.2321568000
   23      C       4.8780164000    -2.0704998000    -0.5239592000
   24      O       5.7021906000    -2.4529058000    -1.4021365000
   25      C       2.3790086000     3.0584140000    -0.1983031000
   26      N       2.8992132000     1.8319812000    -0.1153049000
   27      C       4.1227867000     1.2642102000    -0.6978239000
   28      H       4.4124582000     0.4449605000    -0.0227574000
   29      H       4.9095359000     2.0305675000    -0.6605114000
   30      C       3.1256878000     4.1698644000    -0.8760533000
   31      H       3.1737386000     5.0305733000    -0.1919839000
   32      H       4.1408923000     3.8899917000    -1.1806353000
   33      C       3.9450307000     0.7697212000    -2.1442610000
   34      H       3.7920474000     1.6617660000    -2.7760172000
   35      H       4.9073489000     0.3264515000    -2.4553775000
   36      C       2.7847355000    -0.2106835000    -2.4239809000
   37      H       1.9101306000     0.0828020000    -1.8237558000
   38      H       2.4815242000    -0.0500452000    -3.4734842000
   39      C       3.0366699000    -1.7261836000    -2.2907757000
   40      H       2.1263299000    -2.2296843000    -2.6620404000
   41      H       3.8694934000    -2.0291405000    -2.9457197000
   42      C       3.3681053000    -2.2875613000    -0.8945258000
   43      H       3.2149504000    -3.3784840000    -0.9218099000
   44      C      -4.2870271000     1.8273613000    -0.3681381000
   45      H      -4.1835279000     2.0576637000     0.7047967000
   46      H      -5.3288846000     2.0589569000    -0.6498605000
   47      C      -1.5678440000     1.6905665000    -3.3351046000
   48      H      -2.0994247000     2.5832742000    -3.6895185000
   49      H      -0.6461785000     1.5612704000    -3.9173088000
   50      C      -3.9766821000     0.3463832000    -0.5915190000
   51      H      -2.9228386000     0.1638275000    -0.3209705000
   52      H      -4.0871826000     0.0911075000    -1.6613989000
   53      C      -4.8602562000    -0.5685744000     0.2560947000
   54      H      -4.8852956000    -0.1942052000     1.2916116000
   55      H      -5.8913028000    -0.5780619000    -0.1326516000
   56      O      -3.3625867000    -3.1701586000    -1.5898867000
   57      O       5.1427190000    -1.5549902000     0.6003827000
   58      O      -0.2598391000    -0.5187900000     0.7364151000
   59      Fe      0.1555953000     1.3541029000     0.5993932000
   60      O      -0.1557053000     1.2757157000     2.5896008000
   61      O      -0.0812912000     1.2783441000    -1.4816019000
   62      O      -1.5562550000     2.3680914000     0.3111228000
   63      O       1.2232284000     3.2593969000     0.3043976000
   64      O      -0.3760529000    -0.1933324000     4.2814547000
   65      O       2.1086249000     0.9127167000     0.5103063000
   66      H      -2.2115845000     0.8112107000    -3.5004775000
   67      H       2.5580475000     4.4817204000    -1.7669908000
   68      C      -3.3690745000     2.7620538000    -1.1654574000
   69      H      -3.4836387000     3.8038938000    -0.8273849000
   70      H      -3.5955124000     2.7202708000    -2.2381645000
 ----------------------------------------------------------------
 Nuclear Repulsion Energy =        6168.02731408 hartrees
 There are      164 alpha and      159 beta electrons
 Requested basis set is non-standard
 There are 339 shells and 739 basis functions

 Total QAlloc Memory Limit   8000 MB
 Mega-Array Size       188 MB
 MEM_STATIC part       192 MB

 -----------------------------------------------------------------------
                STARTING GEOMETRY OPTIMIZER USING LIBOPT3
                by Peter F. McLaughlin, Yu Zhang, Evgeny Epifanovsky
 -----------------------------------------------------------------------

              Initial Energy and Gradient Calculation
   -- Checking Topology for Ill-Behaving Coordinates --

 -------------------------------------------
   Coordinate       |  Removed | Additions 
 -------------------------------------------
	Bonds                     0          0
	Angles                    0          0
	Torsions                  0          0
	Co-Linear Type5s          0          0
	Co-Linear Type6s          0          0
 -------------------------------------------
     Done Checking Topology
 Adding empirical dispersion correction 
 ----------------------------------------------------------------
 Doing -D3(BJ) with
 s6  =   1.00000
 s8  =   2.23820
 a1  =   0.45290
 a2  =   4.65500
 -D3 energy without 3body term =     -0.1263776336 hartrees
 ----------------------------------------------------------------
             Standard Nuclear Orientation (Angstroms)
    I     Atom           X                Y                Z
 ----------------------------------------------------------------
    1      C      -1.1849119000     1.7819306000    -1.8843326000
    2      C      -4.3787560000    -2.0292120000     0.2785619000
    3      H      -5.0704015000    -2.5999664000     0.9263630000
    4      N      -3.0181787000    -2.1944850000     0.7667202000
    5      H      -2.4346101000    -2.6758162000     0.0759945000
    6      C      -4.4373766000    -2.6635966000    -1.1469127000
    7      O      -5.5534596000    -2.6041225000    -1.7270981000
    8      C      -2.5425591000    -1.8389608000     1.9765511000
    9      O      -3.2326218000    -1.2509446000     2.8335959000
   10      N      -1.9687464000     2.3820601000    -0.9893650000
   11      C      -1.0961519000    -2.2206358000     2.2426309000
   12      H      -0.7875510000    -3.0618914000     1.6030573000
   13      H      -1.0242055000    -2.5296583000     3.2954214000
   14      C      -0.1015921000    -1.0604248000     2.0122789000
   15      C      -0.2564878000     0.0645046000     3.0772000000
   16      C       1.3541578000    -1.5956503000     2.2352644000
   17      H       1.3814015000    -2.1778116000     3.1674977000
   18      H       2.0156106000    -0.7226848000     2.3450657000
   19      C       1.9026363000    -2.4701685000     1.1117811000
   20      O       1.8364723000    -3.7170175000     1.1415574000
   21      N       2.4769768000    -1.7628546000     0.1192333000
   22      H       2.4502593000    -0.7389651000     0.2321568000
   23      C       4.8780164000    -2.0704998000    -0.5239592000
   24      O       5.7021906000    -2.4529058000    -1.4021365000
   25      C       2.3790086000     3.0584140000    -0.1983031000
   26      N       2.8992132000     1.8319812000    -0.1153049000
   27      C       4.1227867000     1.2642102000    -0.6978239000
   28      H       4.4124582000     0.4449605000    -0.0227574000
   29      H       4.9095359000     2.0305675000    -0.6605114000
   30      C       3.1256878000     4.1698644000    -0.8760533000
   31      H       3.1737386000     5.0305733000    -0.1919839000
   32      H       4.1408923000     3.8899917000    -1.1806353000
   33      C       3.9450307000     0.7697212000    -2.1442610000
   34      H       3.7920474000     1.6617660000    -2.7760172000
   35      H       4.9073489000     0.3264515000    -2.4553775000
   36      C       2.7847355000    -0.2106835000    -2.4239809000
   37      H       1.9101306000     0.0828020000    -1.8237558000
   38      H       2.4815242000    -0.0500452000    -3.4734842000
   39      C       3.0366699000    -1.7261836000    -2.2907757000
   40      H       2.1263299000    -2.2296843000    -2.6620404000
   41      H       3.8694934000    -2.0291405000    -2.9457197000
   42      C       3.3681053000    -2.2875613000    -0.8945258000
   43      H       3.2149504000    -3.3784840000    -0.9218099000
   44      C      -4.2870271000     1.8273613000    -0.3681381000
   45      H      -4.1835279000     2.0576637000     0.7047967000
   46      H      -5.3288846000     2.0589569000    -0.6498605000
   47      C      -1.5678440000     1.6905665000    -3.3351046000
   48      H      -2.0994247000     2.5832742000    -3.6895185000
   49      H      -0.6461785000     1.5612704000    -3.9173088000
   50      C      -3.9766821000     0.3463832000    -0.5915190000
   51      H      -2.9228386000     0.1638275000    -0.3209705000
   52      H      -4.0871826000     0.0911075000    -1.6613989000
   53      C      -4.8602562000    -0.5685744000     0.2560947000
   54      H      -4.8852956000    -0.1942052000     1.2916116000
   55      H      -5.8913028000    -0.5780619000    -0.1326516000
   56      O      -3.3625867000    -3.1701586000    -1.5898867000
   57      O       5.1427190000    -1.5549902000     0.6003827000
   58      O      -0.2598391000    -0.5187900000     0.7364151000
   59      Fe      0.1555953000     1.3541029000     0.5993932000
   60      O      -0.1557053000     1.2757157000     2.5896008000
   61      O      -0.0812912000     1.2783441000    -1.4816019000
   62      O      -1.5562550000     2.3680914000     0.3111228000
   63      O       1.2232284000     3.2593969000     0.3043976000
   64      O      -0.3760529000    -0.1933324000     4.2814547000
   65      O       2.1086249000     0.9127167000     0.5103063000
   66      H      -2.2115845000     0.8112107000    -3.5004775000
   67      H       2.5580475000     4.4817204000    -1.7669908000
   68      C      -3.3690745000     2.7620538000    -1.1654574000
   69      H      -3.4836387000     3.8038938000    -0.8273849000
   70      H      -3.5955124000     2.7202708000    -2.2381645000
 ----------------------------------------------------------------
 Nuclear Repulsion Energy =        6168.02731408 hartrees
 There are      164 alpha and      159 beta electrons
 Using C-PCM dielectric factor f(eps) = (eps-1)/eps = 0.987243
No default van der Waals radius is available for Z = 26
	Found R = 2.4400 A in the $van_der_waals section
 Discretize the solute cavity surface with Lebedev spheres
	Using 110 Lebedev grid points for each H atom
	Using 194 Lebedev grid points for other atoms
	Atomic van der Waals radii (Bondi set) will be scaled by 1.20
 Using smooth SwiG surface discretization
 Remove points where switching function is < 1.0e-08
 Keep 4056 surface tesserae and discard 7004 interior tesserae
 Molecular Surface Area = 525.293 Angst**2

 Requested basis set is non-standard
 There are 339 shells and 739 basis functions
 A cutoff of  1.0D-12 yielded  47110 shell pairs
 There are    204730 function pairs (    227000 Cartesian)
 Smallest overlap matrix eigenvalue = 2.55E-04

 Scale SEOQF with 1.000000e-02/1.000000e-01/1.000000e-01

 Standard Electronic Orientation quadrupole field applied
 Nucleus-field energy     =     0.0000000098 hartrees
 ================ Generating on-the-fly SAD Guess ================
 Attempting to make child job directory: /data/scratch/C_FeAB_N_ccL_3sextet_SfS_tpsshD3bj_ccpvdz_pcmH2O_OPT_220240610120815//Frg1/
 Attempting to make child job directory: /data/scratch/C_FeAB_N_ccL_3sextet_SfS_tpsshD3bj_ccpvdz_pcmH2O_OPT_220240610120815//Frg2/
 Attempting to make child job directory: /data/scratch/C_FeAB_N_ccL_3sextet_SfS_tpsshD3bj_ccpvdz_pcmH2O_OPT_220240610120815//Frg3/
 Attempting to make child job directory: /data/scratch/C_FeAB_N_ccL_3sextet_SfS_tpsshD3bj_ccpvdz_pcmH2O_OPT_220240610120815//Frg4/
 Attempting to make child job directory: /data/scratch/C_FeAB_N_ccL_3sextet_SfS_tpsshD3bj_ccpvdz_pcmH2O_OPT_220240610120815//Frg5/
 Creating input file /data/scratch/C_FeAB_N_ccL_3sextet_SfS_tpsshD3bj_ccpvdz_pcmH2O_OPT_220240610120815/Frg1.input
 using default PutDataFrgm: nothing
 calling putenv with: QCSCRATCH=/data/scratch/C_FeAB_N_ccL_3sextet_SfS_tpsshD3bj_ccpvdz_pcmH2O_OPT_220240610120815/ 
 Spawning Job For Fragment 0
 Done Job For Fragment 0
 calling putenv with: QCSCRATCH=/data/scratch 
 calling putenv with: QCTHREADS=20 
 Creating input file /data/scratch/C_FeAB_N_ccL_3sextet_SfS_tpsshD3bj_ccpvdz_pcmH2O_OPT_220240610120815/Frg2.input
 using default PutDataFrgm: nothing
 calling putenv with: QCSCRATCH=/data/scratch/C_FeAB_N_ccL_3sextet_SfS_tpsshD3bj_ccpvdz_pcmH2O_OPT_220240610120815/ 
 Spawning Job For Fragment 1
 Done Job For Fragment 1
 calling putenv with: QCSCRATCH=/data/scratch 
 calling putenv with: QCTHREADS=20 
 Creating input file /data/scratch/C_FeAB_N_ccL_3sextet_SfS_tpsshD3bj_ccpvdz_pcmH2O_OPT_220240610120815/Frg3.input
 using default PutDataFrgm: nothing
 calling putenv with: QCSCRATCH=/data/scratch/C_FeAB_N_ccL_3sextet_SfS_tpsshD3bj_ccpvdz_pcmH2O_OPT_220240610120815/ 
 Spawning Job For Fragment 2
 Done Job For Fragment 2
 calling putenv with: QCSCRATCH=/data/scratch 
 calling putenv with: QCTHREADS=20 
 Creating input file /data/scratch/C_FeAB_N_ccL_3sextet_SfS_tpsshD3bj_ccpvdz_pcmH2O_OPT_220240610120815/Frg4.input
 using default PutDataFrgm: nothing
 calling putenv with: QCSCRATCH=/data/scratch/C_FeAB_N_ccL_3sextet_SfS_tpsshD3bj_ccpvdz_pcmH2O_OPT_220240610120815/ 
 Spawning Job For Fragment 3
 Done Job For Fragment 3
 calling putenv with: QCSCRATCH=/data/scratch 
 calling putenv with: QCTHREADS=20 
 Creating input file /data/scratch/C_FeAB_N_ccL_3sextet_SfS_tpsshD3bj_ccpvdz_pcmH2O_OPT_220240610120815/Frg5.input
 using default PutDataFrgm: nothing
 calling putenv with: QCSCRATCH=/data/scratch/C_FeAB_N_ccL_3sextet_SfS_tpsshD3bj_ccpvdz_pcmH2O_OPT_220240610120815/ 
 Spawning Job For Fragment 4
 Done Job For Fragment 4
 calling putenv with: QCSCRATCH=/data/scratch 
 calling putenv with: QCTHREADS=20 
 Time for running child jobs:  CPU 0.02 s  wall 56.89 s
 ============= Method Specific SAD Guess Constructed =============
 Guess from on-the-fly superposition of atomic densities
 Warning: Energy on first SCF cycle will be non-variational

 -----------------------------------------------------------------------
  General SCF calculation program by
  Eric Jon Sundstrom, Paul Horn, Yuezhi Mao, Dmitri Zuev, Alec White,
  David Stuck, Shaama M.S., Shane Yost, Joonho Lee, David Small,
  Daniel Levine, Susi Lehtola, Hugh Burton, Evgeny Epifanovsky,
  Bang C. Huynh
 -----------------------------------------------------------------------
 Exchange:     0.1000 Hartree-Fock + 0.9000 TPSS
 Correlation:  1.0000 TPSS
 Using SG-2 standard quadrature grid
 Dispersion:   Grimme D3
 using 20 threads for integral computing
 -------------------------------------------------------
 OpenMP Integral computing Module                
 Release: version 1.0, May 2013, Q-Chem Inc. Pittsburgh 
 -------------------------------------------------------
 C-PCM solvent model [f = (eps-1)/eps], solve by matrix inversion
 A unrestricted SCF calculation will be
 performed using DIIS
 SCF converges when DIIS error is below 1.0e-08
 ---------------------------------------
  Cycle       Energy         DIIS error
 ---------------------------------------
    1   -3330.8457386968      1.57e-02  
    2   -3317.0254214868      2.04e-03  
    3   -3315.0077601884      3.73e-03  
    4   -3317.4507979522      1.76e-03  
    5   -3317.8828694366      8.46e-04  
    6   -3318.0053298899      2.73e-04  
    7   -3318.0181442346      1.45e-04  
    8   -3318.0227010915      4.85e-05  
    9   -3318.0232341143      2.54e-05  
   10   -3318.0233783548      1.37e-05  
   11   -3318.0234271130      6.04e-06  
   12   -3318.0234390886      2.37e-06  
   13   -3318.0234410483      1.65e-06  
   14   -3318.0234418268      7.71e-07  
   15   -3318.0234419805      3.97e-07  
   16   -3318.0234420318      1.74e-07  
   17   -3318.0234420414      1.06e-07  
   18   -3318.0234420443      5.18e-08  
   19   -3318.0234420446      2.28e-08  
   20   -3318.0234420452      1.43e-08  
   21   -3318.0234420451      4.72e-09  Convergence criterion met
 ---------------------------------------
 SCF time:   CPU 43426.73s  wall 2688.00s 
<S^2> =          8.757082678

************** Final PCM Free Energy Summary **************
 G_electrostatic  =      -0.53226769 hartree =    -334.00301756 kcal/mol
 G_cavitation     =       0.00000000 hartree =       0.00000000 kcal/mol
 G_dispersion     =       0.00000000 hartree =       0.00000000 kcal/mol
 G_repulsion      =       0.00000000 hartree =       0.00000000 kcal/mol
 --------------------------------------------------
 Non-electrostatic Free Energy =       0.00000000 hartree =       0.00000000 kcal/mol
 Total                         =      -0.53226769 hartree =    -334.00301756 kcal/mol
 --------------------------------------------------
 SCF Energy (H0 + V/2)                       =   -3318.02344205 
 Solute Internal Energy (H0)                 =   -3317.49117435 
 Total Free Energy (H0 + V/2 + non-elec)     =   -3318.02344205 hartree
                                             = -2082091.13488335 kcal/mol
***********************************************************

 SCF   energy in the final basis set =    -3318.0234420451
 Total energy in the final basis set =    -3318.0234420451
 
 --------------------------------------------------------------
 
                    Orbital Energies (a.u.)
 --------------------------------------------------------------
 
 Alpha MOs
 -- Occupied --
******** -29.9589 -25.7896 -25.7869 -25.7862 -19.0560 -19.0487 -19.0480
-19.0425 -19.0336 -19.0105 -19.0090 -19.0075 -19.0050 -18.9841 -18.9767
-18.9753 -18.9735 -14.3332 -14.3332 -14.2525 -14.2402 -10.2134 -10.2125
-10.2022 -10.1953 -10.1904 -10.1784 -10.1714 -10.1617 -10.1567 -10.1512
-10.1327 -10.1288 -10.1282 -10.1271 -10.1157 -10.1144 -10.1080 -10.1080
-10.1043 -10.1040 -10.1033 -10.1021  -3.5412  -2.3176  -2.3125  -2.3105
 -1.0532  -1.0491  -1.0082  -0.9800  -0.9795  -0.9762  -0.9739  -0.9692
 -0.9620  -0.9345  -0.9167  -0.8874  -0.8780  -0.8666  -0.8643  -0.8260
 -0.8232  -0.7652  -0.7600  -0.7402  -0.7270  -0.7190  -0.7027  -0.6976
 -0.6829  -0.6607  -0.6500  -0.6103  -0.6001  -0.5813  -0.5608  -0.5492
 -0.5340  -0.5240  -0.5201  -0.5030  -0.4981  -0.4915  -0.4829  -0.4785
 -0.4725  -0.4720  -0.4649  -0.4587  -0.4531  -0.4449  -0.4411  -0.4351
 -0.4295  -0.4233  -0.4212  -0.4170  -0.4119  -0.4104  -0.4054  -0.4041
 -0.4001  -0.3973  -0.3920  -0.3864  -0.3836  -0.3821  -0.3800  -0.3789
 -0.3752  -0.3738  -0.3698  -0.3648  -0.3627  -0.3602  -0.3577  -0.3557
 -0.3515  -0.3497  -0.3469  -0.3458  -0.3435  -0.3403  -0.3390  -0.3373
 -0.3333  -0.3317  -0.3284  -0.3251  -0.3190  -0.3129  -0.3103  -0.3027
 -0.2996  -0.2983  -0.2964  -0.2923  -0.2919  -0.2862  -0.2842  -0.2765
 -0.2633  -0.2597  -0.2559  -0.2383  -0.2273  -0.2242  -0.2184  -0.2122
 -0.2090  -0.2052  -0.2029  -0.2010  -0.1962  -0.1955  -0.1878  -0.1850
 -0.1842  -0.1808  -0.1767  -0.1719
 -- Virtual --
  0.0087   0.0106   0.0199   0.0264   0.0395   0.0485   0.0539   0.0647
  0.0649   0.0672   0.0775   0.0867   0.0939   0.0959   0.1005   0.1074
  0.1122   0.1154   0.1192   0.1197   0.1244   0.1261   0.1296   0.1399
  0.1423   0.1470   0.1514   0.1524   0.1567   0.1592   0.1647   0.1673
  0.1698   0.1720   0.1736   0.1777   0.1791   0.1852   0.1877   0.1916
  0.1960   0.1972   0.2051   0.2087   0.2132   0.2180   0.2188   0.2200
  0.2257   0.2309   0.2362   0.2414   0.2435   0.2463   0.2521   0.2542
  0.2575   0.2675   0.2752   0.2812   0.2827   0.2886   0.2902   0.2997
  0.3025   0.3104   0.3126   0.3163   0.3265   0.3317   0.3405   0.3494
  0.3541   0.3635   0.3728   0.3740   0.3827   0.3862   0.3899   0.3989
  0.4012   0.4101   0.4143   0.4256   0.4346   0.4355   0.4405   0.4417
  0.4456   0.4547   0.4592   0.4642   0.4694   0.4716   0.4816   0.4825
  0.4893   0.4953   0.5019   0.5043   0.5131   0.5198   0.5232   0.5279
  0.5311   0.5361   0.5384   0.5428   0.5453   0.5491   0.5553   0.5605
  0.5626   0.5666   0.5703   0.5729   0.5774   0.5807   0.5882   0.5917
  0.5934   0.5966   0.6019   0.6065   0.6132   0.6167   0.6217   0.6244
  0.6263   0.6273   0.6315   0.6323   0.6379   0.6413   0.6451   0.6461
  0.6500   0.6508   0.6546   0.6591   0.6617   0.6634   0.6667   0.6687
  0.6724   0.6766   0.6786   0.6799   0.6816   0.6849   0.6902   0.6908
  0.6920   0.6995   0.7000   0.7037   0.7054   0.7179   0.7194   0.7239
  0.7288   0.7321   0.7376   0.7396   0.7445   0.7476   0.7580   0.7620
  0.7640   0.7657   0.7669   0.7751   0.7788   0.7846   0.7888   0.7934
  0.8056   0.8073   0.8108   0.8183   0.8268   0.8338   0.8357   0.8434
  0.8506   0.8595   0.8622   0.8666   0.8715   0.8799   0.8857   0.8953
  0.8993   0.9213   0.9224   0.9311   0.9343   0.9447   0.9475   0.9625
  0.9653   0.9826   0.9890   0.9925   1.0066   1.0088   1.0169   1.0206
  1.0339   1.0345   1.0383   1.0453   1.0499   1.0553   1.0577   1.0639
  1.0673   1.0844   1.0874   1.0936   1.0986   1.1012   1.1107   1.1112
  1.1217   1.1255   1.1303   1.1356   1.1379   1.1396   1.1466   1.1527
  1.1575   1.1614   1.1690   1.1712   1.1741   1.1799   1.1866   1.1895
  1.1945   1.1998   1.2007   1.2064   1.2161   1.2209   1.2280   1.2329
  1.2356   1.2410   1.2454   1.2497   1.2644   1.2667   1.2797   1.2831
  1.2867   1.2911   1.2952   1.3020   1.3073   1.3124   1.3184   1.3283
  1.3357   1.3376   1.3400   1.3553   1.3558   1.3634   1.3669   1.3710
  1.3755   1.3853   1.3877   1.3988   1.4052   1.4079   1.4153   1.4239
  1.4274   1.4325   1.4351   1.4482   1.4553   1.4573   1.4600   1.4699
  1.4745   1.4794   1.4870   1.4963   1.5048   1.5079   1.5245   1.5251
  1.5288   1.5361   1.5436   1.5546   1.5560   1.5642   1.5734   1.5766
  1.5876   1.5906   1.5963   1.5993   1.6015   1.6090   1.6140   1.6177
  1.6249   1.6269   1.6342   1.6385   1.6437   1.6450   1.6485   1.6541
  1.6571   1.6608   1.6639   1.6685   1.6740   1.6746   1.6777   1.6791
  1.6851   1.6862   1.6869   1.6929   1.6989   1.7074   1.7079   1.7115
  1.7152   1.7187   1.7245   1.7265   1.7307   1.7349   1.7380   1.7408
  1.7468   1.7508   1.7553   1.7589   1.7640   1.7682   1.7741   1.7791
  1.7843   1.7869   1.7872   1.7932   1.7958   1.8036   1.8049   1.8110
  1.8160   1.8197   1.8235   1.8263   1.8285   1.8324   1.8399   1.8403
  1.8446   1.8521   1.8599   1.8639   1.8674   1.8766   1.8801   1.8825
  1.8852   1.8900   1.8936   1.9025   1.9044   1.9097   1.9229   1.9276
  1.9327   1.9338   1.9463   1.9510   1.9561   1.9729   1.9763   1.9782
  1.9858   1.9898   1.9974   1.9989   2.0064   2.0109   2.0229   2.0234
  2.0370   2.0426   2.0458   2.0557   2.0603   2.0691   2.0720   2.0798
  2.0816   2.0917   2.1074   2.1094   2.1163   2.1204   2.1279   2.1327
  2.1371   2.1520   2.1573   2.1615   2.1684   2.1704   2.1806   2.1850
  2.1934   2.1989   2.2021   2.2083   2.2170   2.2244   2.2309   2.2380
  2.2418   2.2546   2.2571   2.2657   2.2676   2.2791   2.2823   2.2917
  2.2977   2.3015   2.3083   2.3201   2.3260   2.3344   2.3363   2.3493
  2.3523   2.3540   2.3562   2.3608   2.3770   2.3817   2.3860   2.3958
  2.3970   2.4056   2.4250   2.4299   2.4311   2.4558   2.4576   2.4624
  2.4673   2.4756   2.4778   2.4808   2.4841   2.5054   2.5137   2.5212
  2.5246   2.5277   2.5326   2.5402   2.5515   2.5611   2.5661   2.5744
  2.5760   2.5932   2.5979   2.6046   2.6141   2.6229   2.6323   2.6395
  2.6407   2.6569   2.6631   2.6765   2.6783   2.6880   2.6924   2.6994
  2.7064   2.7142   2.7171   2.7187   2.7225   2.7249   2.7277   2.7311
  2.7399   2.7426   2.7523   2.7576   2.7658   2.7742   2.7768   2.7827
  2.7839   2.7890   2.7978   2.8196   2.8285   2.8301   2.8378   2.8438
  2.8570   2.8724   2.8793   2.9206   2.9285   2.9366   2.9438   2.9580
  2.9725   2.9790   2.9820   3.0060   3.0105   3.0175   3.0313   3.0448
  3.0753   3.0897   3.0948   3.1071   3.1239   3.1312   3.1467   3.1637
  3.2023   3.2066   3.2176   3.2220   3.2315   3.2386   3.2508   3.2712
  3.3707   3.3966   3.4052   3.4086   3.4147   3.4170   3.4374   3.4521
  3.4588   3.4750   3.4855   3.4960   3.4998   3.5066   3.5201   3.5343
  3.5435   3.5786   3.5865   3.5910   3.6156   3.7419   3.7671
 
 Beta MOs
 -- Occupied --
******** -29.8778 -25.7206 -25.7190 -25.7188 -19.0513 -19.0455 -19.0434
-19.0401 -19.0298 -19.0098 -19.0075 -19.0050 -19.0018 -18.9841 -18.9767
-18.9753 -18.9735 -14.3329 -14.3329 -14.2525 -14.2401 -10.2135 -10.2124
-10.2021 -10.1953 -10.1904 -10.1784 -10.1714 -10.1616 -10.1566 -10.1512
-10.1327 -10.1287 -10.1281 -10.1271 -10.1156 -10.1144 -10.1079 -10.1078
-10.1043 -10.1040 -10.1033 -10.1021  -3.3387  -2.1062  -2.1037  -2.1031
 -1.0488  -1.0447  -1.0044  -0.9799  -0.9747  -0.9737  -0.9705  -0.9692
 -0.9620  -0.9260  -0.9084  -0.8874  -0.8780  -0.8666  -0.8641  -0.8218
 -0.8192  -0.7648  -0.7596  -0.7381  -0.7266  -0.7180  -0.7019  -0.6965
 -0.6824  -0.6602  -0.6497  -0.6096  -0.5997  -0.5798  -0.5603  -0.5481
 -0.5327  -0.5214  -0.5181  -0.5002  -0.4952  -0.4864  -0.4808  -0.4727
 -0.4702  -0.4678  -0.4613  -0.4531  -0.4500  -0.4430  -0.4392  -0.4335
 -0.4261  -0.4218  -0.4205  -0.4147  -0.4102  -0.4088  -0.4039  -0.4005
 -0.3972  -0.3910  -0.3857  -0.3827  -0.3812  -0.3805  -0.3780  -0.3757
 -0.3733  -0.3668  -0.3660  -0.3597  -0.3584  -0.3545  -0.3526  -0.3512
 -0.3492  -0.3457  -0.3416  -0.3378  -0.3347  -0.3330  -0.3258  -0.3208
 -0.3171  -0.3140  -0.3034  -0.3005  -0.2982  -0.2970  -0.2959  -0.2926
 -0.2870  -0.2849  -0.2753  -0.2727  -0.2666  -0.2611  -0.2492  -0.2488
 -0.2460  -0.2260  -0.2194  -0.2165  -0.2111  -0.2094  -0.2029  -0.2015
 -0.1956  -0.1936  -0.1867  -0.1844  -0.1818  -0.1810  -0.1724
 -- Virtual --
 -0.0815  -0.0805  -0.0689  -0.0329  -0.0309   0.0125   0.0155   0.0210
  0.0271   0.0408   0.0503   0.0548   0.0648   0.0653   0.0676   0.0784
  0.0871   0.0945   0.0965   0.1028   0.1093   0.1125   0.1166   0.1195
  0.1202   0.1249   0.1269   0.1299   0.1404   0.1426   0.1490   0.1520
  0.1540   0.1573   0.1600   0.1654   0.1677   0.1707   0.1737   0.1758
  0.1782   0.1796   0.1856   0.1891   0.1928   0.1974   0.1998   0.2063
  0.2093   0.2139   0.2190   0.2205   0.2242   0.2295   0.2326   0.2375
  0.2430   0.2462   0.2470   0.2545   0.2587   0.2616   0.2727   0.2767
  0.2817   0.2866   0.2903   0.2920   0.3027   0.3052   0.3119   0.3169
  0.3240   0.3346   0.3384   0.3444   0.3532   0.3579   0.3653   0.3754
  0.3811   0.3855   0.3889   0.3944   0.4013   0.4078   0.4134   0.4163
  0.4279   0.4355   0.4375   0.4414   0.4430   0.4472   0.4566   0.4609
  0.4661   0.4712   0.4729   0.4825   0.4846   0.4903   0.4967   0.5032
  0.5054   0.5146   0.5207   0.5245   0.5295   0.5319   0.5368   0.5395
  0.5439   0.5464   0.5503   0.5555   0.5620   0.5634   0.5684   0.5718
  0.5748   0.5796   0.5824   0.5897   0.5930   0.5941   0.5972   0.6024
  0.6076   0.6139   0.6184   0.6226   0.6250   0.6274   0.6281   0.6319
  0.6331   0.6383   0.6419   0.6457   0.6491   0.6511   0.6516   0.6554
  0.6596   0.6629   0.6642   0.6674   0.6702   0.6728   0.6772   0.6795
  0.6814   0.6822   0.6860   0.6909   0.6928   0.6937   0.7003   0.7012
  0.7046   0.7081   0.7186   0.7206   0.7244   0.7296   0.7343   0.7401
  0.7407   0.7461   0.7495   0.7594   0.7637   0.7663   0.7683   0.7749
  0.7784   0.7800   0.7856   0.7915   0.7951   0.8079   0.8116   0.8145
  0.8241   0.8328   0.8362   0.8406   0.8509   0.8579   0.8609   0.8660
  0.8717   0.8751   0.8825   0.8886   0.9009   0.9035   0.9228   0.9250
  0.9332   0.9375   0.9467   0.9514   0.9640   0.9694   0.9858   0.9912
  0.9976   1.0095   1.0129   1.0204   1.0227   1.0356   1.0362   1.0412
  1.0480   1.0536   1.0575   1.0613   1.0671   1.0711   1.0867   1.0914
  1.0949   1.0996   1.1056   1.1121   1.1155   1.1236   1.1272   1.1354
  1.1371   1.1412   1.1413   1.1497   1.1545   1.1591   1.1648   1.1712
  1.1726   1.1768   1.1815   1.1888   1.1912   1.1966   1.2013   1.2057
  1.2110   1.2180   1.2242   1.2311   1.2349   1.2368   1.2448   1.2474
  1.2528   1.2672   1.2727   1.2819   1.2861   1.2904   1.2959   1.3006
  1.3071   1.3104   1.3176   1.3212   1.3316   1.3385   1.3423   1.3438
  1.3605   1.3616   1.3674   1.3706   1.3808   1.3813   1.3893   1.3957
  1.4029   1.4088   1.4166   1.4228   1.4269   1.4323   1.4389   1.4423
  1.4511   1.4582   1.4666   1.4694   1.4772   1.4792   1.4883   1.4935
  1.5022   1.5103   1.5168   1.5281   1.5313   1.5339   1.5400   1.5554
  1.5577   1.5631   1.5704   1.5782   1.5834   1.5881   1.5965   1.5994
  1.6027   1.6061   1.6119   1.6187   1.6195   1.6296   1.6345   1.6379
  1.6445   1.6484   1.6507   1.6549   1.6577   1.6596   1.6646   1.6688
  1.6714   1.6754   1.6765   1.6797   1.6809   1.6865   1.6888   1.6914
  1.6970   1.7030   1.7091   1.7109   1.7174   1.7202   1.7211   1.7260
  1.7295   1.7319   1.7367   1.7392   1.7436   1.7509   1.7573   1.7598
  1.7617   1.7685   1.7694   1.7764   1.7834   1.7871   1.7884   1.7924
  1.7963   1.8005   1.8049   1.8086   1.8148   1.8203   1.8227   1.8254
  1.8287   1.8304   1.8354   1.8420   1.8441   1.8464   1.8551   1.8632
  1.8686   1.8704   1.8797   1.8830   1.8854   1.8908   1.8940   1.8992
  1.9050   1.9095   1.9128   1.9263   1.9293   1.9361   1.9404   1.9481
  1.9566   1.9632   1.9748   1.9777   1.9818   1.9875   1.9933   2.0008
  2.0029   2.0080   2.0137   2.0267   2.0288   2.0392   2.0444   2.0478
  2.0584   2.0644   2.0721   2.0742   2.0809   2.0855   2.0970   2.1089
  2.1131   2.1185   2.1233   2.1304   2.1367   2.1389   2.1542   2.1594
  2.1632   2.1700   2.1725   2.1825   2.1891   2.1959   2.2003   2.2035
  2.2102   2.2180   2.2266   2.2335   2.2403   2.2435   2.2562   2.2588
  2.2682   2.2687   2.2820   2.2854   2.2941   2.3026   2.3075   2.3122
  2.3217   2.3270   2.3355   2.3407   2.3514   2.3541   2.3558   2.3588
  2.3637   2.3780   2.3842   2.3881   2.3983   2.4003   2.4072   2.4273
  2.4320   2.4356   2.4576   2.4585   2.4648   2.4694   2.4771   2.4794
  2.4833   2.4860   2.5084   2.5155   2.5230   2.5307   2.5321   2.5354
  2.5430   2.5536   2.5642   2.5702   2.5768   2.5786   2.5966   2.6007
  2.6086   2.6163   2.6257   2.6344   2.6413   2.6462   2.6638   2.6702
  2.6785   2.6810   2.6931   2.7006   2.7042   2.7081   2.7198   2.7239
  2.7256   2.7262   2.7308   2.7323   2.7339   2.7458   2.7516   2.7631
  2.7647   2.7733   2.7772   2.7824   2.7837   2.7881   2.7908   2.8096
  2.8229   2.8312   2.8403   2.8436   2.8533   2.8605   2.8865   2.9110
  2.9332   2.9374   2.9502   2.9506   2.9756   2.9808   3.0019   3.0060
  3.0135   3.0319   3.0465   3.0582   3.0924   3.0980   3.1192   3.1224
  3.1314   3.1432   3.1474   3.1806   3.2057   3.2079   3.2217   3.2248
  3.2384   3.2452   3.2535   3.2940   3.3543   3.3924   3.4010   3.4145
  3.4154   3.4245   3.4349   3.4529   3.4538   3.4753   3.4878   3.4957
  3.5004   3.5117   3.5249   3.5367   3.5786   3.5821   3.5868   3.5990
  3.6172   3.7014   3.7503   3.7806
 --------------------------------------------------------------
 
          Ground-State Mulliken Net Atomic Charges

     Atom                 Charge (a.u.)    Spin (a.u.)
  --------------------------------------------------------
      1 C                     0.147008       0.001627
      2 C                    -0.036707       0.000001
      3 H                     0.015218       0.000014
      4 N                    -0.134243       0.000003
      5 H                     0.094479       0.000090
      6 C                     0.135888      -0.000003
      7 O                    -0.466680       0.000004
      8 C                     0.164074       0.000055
      9 O                    -0.401040       0.000521
     10 N                    -0.055122       0.013441
     11 C                     0.097776       0.005932
     12 H                     0.020559      -0.000040
     13 H                     0.018392       0.002402
     14 C                    -0.109620       0.006266
     15 C                     0.269460       0.005118
     16 C                     0.061731       0.009060
     17 H                     0.018524       0.000265
     18 H                     0.037975       0.000149
     19 C                     0.129250       0.000031
     20 O                    -0.412011       0.000646
     21 N                    -0.127753       0.001498
     22 H                     0.161382       0.001474
     23 C                     0.143813       0.000018
     24 O                    -0.466176       0.000028
     25 C                     0.152744       0.008291
     26 N                    -0.048855       0.011038
     27 C                     0.075606       0.001368
     28 H                     0.038125       0.000756
     29 H                     0.055904       0.001198
     30 C                    -0.009938       0.003000
     31 H                     0.070062       0.000324
     32 H                     0.062355       0.000866
     33 C                    -0.032290       0.000569
     34 H                     0.028537      -0.000051
     35 H                     0.024161       0.000323
     36 C                    -0.104841      -0.000190
     37 H                     0.091857       0.001316
     38 H                     0.017812       0.000124
     39 C                     0.020846       0.000015
     40 H                     0.013209      -0.000012
     41 H                    -0.000395       0.000019
     42 C                    -0.040790       0.000046
     43 H                     0.006110       0.000125
     44 C                    -0.057860       0.000986
     45 H                     0.038333       0.000254
     46 H                     0.031809      -0.000269
     47 C                    -0.015248       0.004115
     48 H                     0.077248       0.000786
     49 H                     0.064974       0.000355
     50 C                    -0.106147      -0.000198
     51 H                     0.080990       0.001071
     52 H                     0.025636      -0.000009
     53 C                     0.020023      -0.000032
     54 H                     0.006588      -0.000007
     55 H                     0.005711      -0.000003
     56 O                    -0.461806       0.000016
     57 O                    -0.455980       0.000125
     58 O                    -0.478585       0.226672
     59 Fe                    0.592842       4.142126
     60 O                    -0.419045       0.102842
     61 O                    -0.381489       0.083600
     62 O                    -0.444324       0.134793
     63 O                    -0.380421       0.064369
     64 O                    -0.384541       0.023390
     65 O                    -0.470943       0.132714
     66 H                     0.084586      -0.000086
     67 H                     0.078985       0.000288
     68 C                     0.115477       0.001785
     69 H                     0.046717       0.000631
     70 H                     0.060074       0.001963
  --------------------------------------------------------
  Sum of atomic charges =    -3.000000
  Sum of spin   charges =     5.000000

 -----------------------------------------------------------------
                    Cartesian Multipole Moments
 -----------------------------------------------------------------
    Charge (ESU x 10^10)
               -14.4096
    Dipole Moment (Debye)
         X      -1.0991      Y      25.3834      Z     -12.8959
       Tot      28.4927
    Quadrupole Moments (Debye-Ang)
        XX    -458.9005     XY       9.8312     YY    -325.0895
        XZ      -3.2102     YZ     -37.0083     ZZ    -316.0714
    Octopole Moments (Debye-Ang^2)
       XXX    -218.4155    XXY     654.4135    XYY      13.4603
       YYY     336.5523    XXZ     120.3424    XYZ      69.7390
       YYZ      -1.7523    XZZ      73.9941    YZZ     115.8714
       ZZZ    -245.9491
    Hexadecapole Moments (Debye-Ang^3)
      XXXX  -20500.1309   XXXY     220.8599   XXYY   -4529.4216
      XYYY     -75.1238   YYYY   -7210.6100   XXXZ      67.1449
      XXYZ    -585.3759   XYYZ    -106.5513   YYYZ     177.3598
      XXZZ   -3738.2740   XYZZ    -240.9081   YYZZ   -1998.5849
      XZZZ     570.9956   YZZZ     296.5095   ZZZZ   -5368.0393
 -----------------------------------------------------------------
 Calculating analytic gradient of the SCF energy
 Gradient of SCF Energy
            1           2           3           4           5           6
    1   0.0223244  -0.0455180   0.0465989   0.0839728  -0.0572260  -0.0120131
    2  -0.0020841  -0.0219108   0.0372334  -0.0171924   0.0429789  -0.0650331
    3   0.0150744   0.0380456  -0.0424421  -0.0055914   0.0617690  -0.1358176
            7           8           9          10          11          12
    1   0.1504715  -0.1021832   0.1035317   0.0020953   0.0027470  -0.0190211
    2   0.0039027   0.0346094  -0.0710617  -0.0127933  -0.0343588   0.0572105
    3   0.0885358   0.0823252  -0.1341105  -0.0744433   0.0061577   0.0436051
           13          14          15          16          17          18
    1  -0.0054595   0.0017727  -0.0142154   0.0420600  -0.0026999  -0.0458796
    2   0.0261074  -0.0238526   0.0336105   0.0028553   0.0411134  -0.0644256
    3  -0.0718337   0.0078429   0.1775538   0.0372013  -0.0673545  -0.0120306
           19          20          21          22          23          24
    1   0.0309798   0.0024520  -0.0429192   0.0169870   0.1498241  -0.1252483
    2  -0.1214037   0.1916474   0.0439394  -0.0884027  -0.0032799   0.0554612
    3  -0.0226356  -0.0117110   0.0632794  -0.0061681   0.0535772   0.1040926
           25          26          27          28          29          30
    1  -0.0228283   0.0212346   0.0323991  -0.0152602  -0.0432722  -0.0033801
    2  -0.0113201   0.0568776   0.0010372   0.0433797  -0.0402656  -0.0070869
    3   0.0180295  -0.0186968   0.0118012  -0.0330838  -0.0002200  -0.0009078
           31          32          33          34          35          36
    1  -0.0020915  -0.0443020   0.0255561   0.0075810  -0.0497861  -0.0461100
    2  -0.0381533   0.0126481   0.0102910  -0.0399439   0.0209209   0.0061922
    3  -0.0319407   0.0132606  -0.0146781   0.0300107   0.0164851  -0.0135133
           37          38          39          40          41          42
    1   0.0557955   0.0144468  -0.0165682   0.0547552  -0.0416402  -0.0109082
    2  -0.0149693  -0.0079854  -0.0232860   0.0311622   0.0141332  -0.0662817
    3  -0.0370101   0.0560592  -0.0353638   0.0211591   0.0396717  -0.0331668
           43          44          45          46          47          48
    1   0.0077159  -0.0100368  -0.0066165   0.0488010  -0.0034533   0.0241815
    2   0.0764965   0.0138566  -0.0117649  -0.0096931  -0.0068298  -0.0394952
    3   0.0101286   0.0258463  -0.0616712   0.0137415   0.0056232   0.0149969
           49          50          51          52          53          54
    1  -0.0474867   0.0256252  -0.0663605   0.0075966  -0.0283621   0.0060164
    2   0.0066537  -0.0111649   0.0086741   0.0131445   0.0139478  -0.0250915
    3   0.0300413  -0.0092839  -0.0219837   0.0587004   0.0153081  -0.0576243
           55          56          57          58          59          60
    1   0.0567049  -0.1264871  -0.0513556   0.0039685  -0.0182062  -0.0059291
    2  -0.0034901   0.0736242  -0.0452550   0.0118156   0.0110702  -0.0948462
    3   0.0197876   0.0714525  -0.1527331   0.0227936   0.0004645   0.0063409
           61          62          63          64          65          66
    1  -0.0830425   0.0239827   0.0704070   0.0190350  -0.0183637   0.0344199
    2   0.0261760  -0.0192457  -0.0260378   0.0325719   0.0050043   0.0483466
    3  -0.0129860   0.0110767  -0.0328959  -0.2097518   0.0031644   0.0069707
           67          68          69          70
    1   0.0271799  -0.0092376   0.0062691   0.0139787
    2  -0.0123944   0.0206704  -0.0509349   0.0019706
    3   0.0399217  -0.0113997  -0.0175538   0.0487067
 Max gradient component =       2.098E-01
 RMS gradient           =       5.117E-02
 Computing fast CPCM-SWIG gradient
 Updating gradient with PCM contributions...
 -- total gradient after adding PCM contribution --
---------------------------------------------------
  Atom         X              Y              Z     
---------------------------------------------------
   1       0.000034       0.000015      -0.000169
   2      -0.000126       0.000065       0.000162
   3       0.000059       0.000061       0.000083
   4      -0.000057       0.000033      -0.000234
   5       0.000058       0.000070       0.000017
   6       0.000028      -0.000092      -0.000148
   7       0.000036       0.000049      -0.000009
   8       0.000198       0.000020       0.000158
   9      -0.000055      -0.000123       0.000067
  10      -0.000122       0.000196       0.000053
  11      -0.000293       0.000033      -0.000103
  12       0.000030       0.000025      -0.000006
  13       0.000104      -0.000048      -0.000012
  14      -0.000212      -0.000188       0.000015
  15      -0.000118       0.000234       0.000033
  16      -0.000097       0.000141      -0.000112
  17       0.000087       0.000051       0.000076
  18       0.000006      -0.000014       0.000095
  19       0.000161      -0.000130      -0.000086
  20      -0.000051       0.000045      -0.000017
  21       0.000208      -0.000010       0.000235
  22      -0.000090       0.000041      -0.000123
  23       0.000483       0.000089       0.000124
  24      -0.000049       0.000038       0.000041
  25       0.000139       0.000119       0.000011
  26       0.000085      -0.000024       0.000517
  27      -0.000018       0.000174      -0.000276
  28      -0.000008      -0.000035      -0.000009
  29      -0.000057      -0.000007       0.000063
  30      -0.000047      -0.000268      -0.000010
  31       0.000048      -0.000001       0.000039
  32      -0.000008       0.000046      -0.000072
  33       0.000380      -0.000150       0.000242
  34      -0.000077       0.000050       0.000020
  35      -0.000081      -0.000022      -0.000087
  36      -0.000110       0.000146      -0.000059
  37       0.000007       0.000018      -0.000064
  38      -0.000026      -0.000041       0.000013
  39       0.000023      -0.000191       0.000074
  40      -0.000002       0.000019      -0.000010
  41       0.000050       0.000073       0.000029
  42      -0.000437      -0.000182      -0.000056
  43      -0.000117       0.000029      -0.000077
  44       0.000156       0.000214       0.000096
  45      -0.000057      -0.000028      -0.000006
  46      -0.000001      -0.000063      -0.000093
  47       0.000030      -0.000080       0.000197
  48      -0.000024       0.000001      -0.000022
  49       0.000015       0.000090      -0.000043
  50      -0.000273       0.000050      -0.000031
  51       0.000064      -0.000039      -0.000085
  52       0.000095      -0.000025      -0.000014
  53       0.000081      -0.000142       0.000193
  54      -0.000011       0.000065      -0.000051
  55       0.000044      -0.000022      -0.000117
  56      -0.000041      -0.000026       0.000031
  57      -0.000031      -0.000024      -0.000047
  58       0.000183       0.000188       0.000216
  59      -0.000271      -0.000242      -0.000078
  60       0.000302      -0.000128      -0.000240
  61      -0.000166      -0.000280       0.000185
  62       0.000206      -0.000017      -0.000108
  63      -0.000056       0.000209      -0.000074
  64      -0.000103       0.000014      -0.000063
  65      -0.000153       0.000088      -0.000261
  66       0.000041      -0.000017      -0.000034
  67      -0.000076       0.000078       0.000026
  68       0.000204      -0.000428      -0.000010
  69      -0.000074       0.000030       0.000019
  70      -0.000048       0.000177      -0.000013
---------------------------------------------------
 Number of fixed atoms: 0
 Gradient time:  CPU 21112.94 s  wall 1107.67 s

 *****************************************************
             Starting BFGS Algorithm
 *****************************************************
            LIBOPT3 RUN PARAMETERS

  Geometry Optimization Coordinates :
	Delocalized Natural Internal Coordinates

  Step Length Selection Method :
	Eigenvector Following Algorithm

  Convergence Criteria :
	Max Gradient Component    	3.00000000e-04
	Max Displacement Component	1.20000000e-03
	Absolute Energy Difference	1.00000000e-06

  Initial Hessian :
	Approximate Hessian - Simple Internal Coordinate Scaled

  Type of Verification :
	Verify with final updated Hessian
 *****************************************************

	OPTIMIZATION CYCLE:	1

 Scaling Magnitude of Eigenvalues
 	Minimum: -25.00000000	 Maximum: 25.00000000
 204 Hessian Eigenvalues to form next step
   0.10000000   0.10000000   0.10000000   0.10000000   0.10000000
   0.10000000   0.10000000   0.10000000   0.10000000   0.10000000
   0.10000003   0.10000048   0.10000064   0.10000099   0.10000100
   0.10000276   0.10000280   0.10001787   0.10003347   0.10003760
   0.10004190   0.10007919   0.10014142   0.10027505   0.10041045
   0.10053917   0.10080978   0.10230424   0.10312273   0.10340211
   0.10462125   0.10558667   0.10660920   0.10735253   0.10868328
   0.10959068   0.11101181   0.11253173   0.11421750   0.11499633
   0.11687474   0.11827033   0.11947684   0.11983933   0.12035693
   0.12261429   0.12297006   0.12431853   0.12453649   0.12554941
   0.12626136   0.12653409   0.12707618   0.12726177   0.12744193
   0.12779803   0.12960395   0.12997335   0.13048725   0.13209223
   0.13326176   0.13444391   0.13518453   0.13682585   0.13966363
   0.14071782   0.14125106   0.14181120   0.14302420   0.14471187
   0.14478483   0.14517662   0.14545800   0.14960566   0.15062527
   0.15128885   0.15137610   0.15563300   0.15600526   0.15645576
   0.15671970   0.15735924   0.15805928   0.15872827   0.15896115
   0.16067306   0.16159790   0.17376112   0.17528447   0.17563131
   0.17592506   0.17636625   0.17761536   0.17815919   0.17961259
   0.18007071   0.18033510   0.18081347   0.18172056   0.18340044
   0.18413829   0.18488213   0.18623081   0.18777983   0.19465191
   0.19610685   0.19628515   0.19795681   0.19798196   0.19875451
   0.19929481   0.19966709   0.19991599   0.19997588   0.19999163
   0.19999538   0.19999911   0.19999983   0.20000000   0.20000000
   0.20000000   0.20000000   0.20000000   0.20000000   0.20000000
   0.20000000   0.20000000   0.20000000   0.20000000   0.20000000
   0.37946328   0.40519726   0.41793410   0.42478866   0.43482792
   0.43512758   0.46508898   0.47068071   0.47651834   0.47877092
   0.48280846   0.48841225   0.49521001   0.49720034   0.49976281
   0.50000000   0.50000000   0.50000000   0.50000000   0.50000000
   0.50000000   0.50000000   0.50000000   0.50000000   0.50000000
   0.50000000   0.50000000   0.50000000   0.50000000   0.50000000
   0.50000000   0.50000000   0.50000000   0.50000000   0.50000000
   0.50000000   0.50000000   0.50000000   0.50000000   0.50000000
   0.50000000   0.50000000   0.50000000   0.50000000   0.50000000
   0.50000000   0.50000000   0.50000000   0.50000000   0.50000000
   0.50000000   0.50000000   0.50000000   0.50000000   0.50000000
   0.50000000   0.50000000   0.50000000   0.50000000   0.50000000
   0.50000000   0.50000000   0.50000000   0.50000000   0.50000000
   0.50000000   0.50000000   0.50000000   0.50000000   0.50000000
   0.50000000   0.50000000   0.50000000   0.50000000

 Minimum Search taking a RFO step
 Searching for Lambda that minimizes along all modes
	Value of Lambda   -0.00000662
	Norm  of Stepsize  0.00699571
	RMS   of Stepsize  0.00048980

	Performing Iterative Coordinate Back-Transformation

	  Starting from Previous Position

	  iter:	0	rms: 7.7621245493e-04	maxdev: 4.4890974079e-03
	  iter:	1	rms: 3.9650187498e-07	maxdev: 2.4222215757e-06	 Success!

	Finished Iterative Coordinate Back-Transformation
 Adding empirical dispersion correction 
 ----------------------------------------------------------------
 Doing -D3(BJ) with
 s6  =   1.00000e+00
 s8  =   2.23820e+00
 a1  =   4.52900e-01
 a2  =   4.65500e+00
 -D3 energy without 3body term =     -1.2637984207e-01 hartrees
 ----------------------------------------------------------------
             Standard Nuclear Orientation (Angstroms)
    I     Atom           X                Y                Z
 ----------------------------------------------------------------
    1      C      -1.1848775257     1.7824087371    -1.8839873678
    2      C      -4.3785893177    -2.0293714829     0.2781518713
    3      H      -5.0704273593    -2.6001661861     0.9257448831
    4      N      -3.0181097037    -2.1943967076     0.7667984909
    5      H      -2.4347552590    -2.6764166384     0.0763542671
    6      C      -4.4368329497    -2.6641740157    -1.1469990397
    7      O      -5.5529035626    -2.6054593992    -1.7273408756
    8      C      -2.5424818243    -1.8380019607     1.9762780685
    9      O      -3.2322601239    -1.2485695306     2.8325530568
   10      N      -1.9688876267     2.3822524506    -0.9890152299
   11      C      -1.0961104903    -2.2201840669     2.2428776219
   12      H      -0.7882244868    -3.0620865577     1.6038071380
   13      H      -1.0245274880    -2.5285319082     3.2958813843
   14      C      -0.1012408239    -1.0603480460     2.0120050666
   15      C      -0.2559544082     0.0641424568     3.0772440712
   16      C       1.3543150072    -1.5958856649     2.2348708273
   17      H       1.3813138249    -2.1781459854     3.1670017337
   18      H       2.0159011608    -0.7229794453     2.3443445786
   19      C       1.9024315042    -2.4703398187     1.1113824746
   20      O       1.8364466973    -3.7172396419     1.1412029606
   21      N       2.4767700048    -1.7629035105     0.1188606719
   22      H       2.4499906144    -0.7390833311     0.2321358780
   23      C       4.8778020889    -2.0702023275    -0.5236267695
   24      O       5.7023724829    -2.4528526088    -1.4014233803
   25      C       2.3788331175     3.0584750483    -0.1983966316
   26      N       2.8989736880     1.8320149438    -0.1156604712
   27      C       4.1224479424     1.2640355483    -0.6980475787
   28      H       4.4122876811     0.4449789908    -0.0228476938
   29      H       4.9093274782     2.0303501771    -0.6612272430
   30      C       3.1259103589     4.1700294961    -0.8758738181
   31      H       3.1738217310     5.0308153187    -0.1919361768
   32      H       4.1411511974     3.8895274881    -1.1797498957
   33      C       3.9443642380     0.7695938933    -2.1445365439
   34      H       3.7914520142     1.6615464131    -2.7763583668
   35      H       4.9069713867     0.3266063780    -2.4553052761
   36      C       2.7844669967    -0.2111801990    -2.4240924035
   37      H       1.9098161538     0.0819686117    -1.8237022791
   38      H       2.4812494238    -0.0505150314    -3.4735964286
   39      C       3.0368698854    -1.7264839375    -2.2909197148
   40      H       2.1267257211    -2.2304668937    -2.6620056180
   41      H       3.8696830603    -2.0294741955    -2.9458581551
   42      C       3.3684575724    -2.2874487536    -0.8945207236
   43      H       3.2159104807    -3.3784779024    -0.9213428038
   44      C      -4.2873507213     1.8273808370    -0.3680895493
   45      H      -4.1838259959     2.0577804903     0.7048298229
   46      H      -5.3292032882     2.0590704594    -0.6497150642
   47      C      -1.5678932073     1.6910233040    -3.3348742776
   48      H      -2.0994282213     2.5837084889    -3.6893323063
   49      H      -0.6462282747     1.5613270848    -3.9169534745
   50      C      -3.9766720279     0.3465035596    -0.5915669772
   51      H      -2.9229124833     0.1641239377    -0.3207774784
   52      H      -4.0872739850     0.0914300782    -1.6614811528
   53      C      -4.8603305555    -0.5687105505     0.2556385512
   54      H      -4.8855508875    -0.1948395484     1.2913522198
   55      H      -5.8914279080    -0.5782496225    -0.1329813859
   56      O      -3.3617497792    -3.1704648685    -1.5896900502
   57      O       5.1422117125    -1.5544308051     0.6007460475
   58      O      -0.2599441041    -0.5187570159     0.7360902254
   59      Fe      0.1555151964     1.3544020513     0.5996612108
   60      O      -0.1557967947     1.2756470443     2.5901246546
   61      O      -0.0810215719     1.2790995391    -1.4815064374
   62      O      -1.5566713411     2.3682596715     0.3116572051
   63      O       1.2232742819     3.2593926189     0.3047004120
   64      O      -0.3748372985    -0.1941657551     4.2815236909
   65      O       2.1086252287     0.9127658899     0.5104817948
   66      H      -2.2117445834     0.8116785058    -3.4999315116
   67      H       2.5589499619     4.4817603784    -1.7672375351
   68      C      -3.3693459206     2.7622919401    -1.1652755088
   69      H      -3.4836710020     3.8041569341    -0.8273635756
   70      H      -3.5955477932     2.7200148479    -2.2380060096
 ----------------------------------------------------------------
 Nuclear Repulsion Energy =        6168.05517391 hartrees
 There are      164 alpha and      159 beta electrons
No default van der Waals radius is available for Z = 26
	Found R = 2.4400 A in the $van_der_waals section
 Discretize the solute cavity surface with Lebedev spheres
	Using 110 Lebedev grid points for each H atom
	Using 194 Lebedev grid points for other atoms
	Atomic van der Waals radii (Bondi set) will be scaled by 1.20
 Using smooth SwiG surface discretization
 Remove points where switching function is < 1.0e-08
 Keep 4055 surface tesserae and discard 7005 interior tesserae
 Molecular Surface Area = 525.282 Angst**2

 Applying Cartesian multipole field
    Component          Value
    ---------          -----
     (2,0,0)        1.00000E-12
     (0,2,0)        2.00000E-11
     (0,0,2)       -3.00000E-11
 Nucleus-field energy     = 9.8251331877e-09 hartrees
 Read the previous MOs as SCF guess

 -----------------------------------------------------------------------
  General SCF calculation program by
  Eric Jon Sundstrom, Paul Horn, Yuezhi Mao, Dmitri Zuev, Alec White,
  David Stuck, Shaama M.S., Shane Yost, Joonho Lee, David Small,
  Daniel Levine, Susi Lehtola, Hugh Burton, Evgeny Epifanovsky,
  Bang C. Huynh
 -----------------------------------------------------------------------
 Requested basis set is non-standard
 There are 339 shells and 739 basis functions
 Exchange:     0.1000 Hartree-Fock + 0.9000 TPSS
 Correlation:  1.0000 TPSS
 Using SG-2 standard quadrature grid
 Dispersion:   Grimme D3
 A cutoff of  1.0D-12 yielded  47110 shell pairs
 There are    204730 function pairs (    227000 Cartesian)
 Smallest overlap matrix eigenvalue = 2.55E-04
 A unrestricted SCF calculation will be
 performed using DIIS
 SCF converges when DIIS error is below 1.0e-08
 ---------------------------------------
  Cycle       Energy         DIIS error
 ---------------------------------------
    1   -3317.4908724737      2.23e-04  
    2   -3317.9536311418      3.70e-04  
    3   -3318.0069060607      1.68e-04  
    4   -3318.0141980265      1.16e-04  
    5   -3318.0169789163      9.25e-05  
    6   -3318.0191922032      7.20e-05  
    7   -3318.0206643946      5.84e-05  
    8   -3318.0217176048      4.60e-05  
    9   -3318.0225096772      3.38e-05  
   10   -3318.0230245719      2.27e-05  
   11   -3318.0232943481      1.37e-05  
   12   -3318.0234152725      6.31e-06  
   13   -3318.0234449676      1.89e-06  
   14   -3318.0234476404      5.28e-07  
   15   -3318.0234478394      1.77e-07  
   16   -3318.0234478629      3.82e-08  
   17   -3318.0234478634      7.15e-09  Convergence criterion met
 ---------------------------------------
 SCF time:   CPU 37725.56s  wall 2317.00s 
<S^2> =          8.757081530

************** Final PCM Free Energy Summary **************
 G_electrostatic  =      -0.53229798 hartree =    -334.02202650 kcal/mol
 G_cavitation     =       0.00000000 hartree =       0.00000000 kcal/mol
 G_dispersion     =       0.00000000 hartree =       0.00000000 kcal/mol
 G_repulsion      =       0.00000000 hartree =       0.00000000 kcal/mol
 --------------------------------------------------
 Non-electrostatic Free Energy =       0.00000000 hartree =       0.00000000 kcal/mol
 Total                         =      -0.53229798 hartree =    -334.02202650 kcal/mol
 --------------------------------------------------
 SCF Energy (H0 + V/2)                       =   -3318.02344786 
 Solute Internal Energy (H0)                 =   -3317.49114988 
 Total Free Energy (H0 + V/2 + non-elec)     =   -3318.02344786 hartree
                                             = -2082091.13853436 kcal/mol
***********************************************************

 SCF   energy in the final basis set =    -3318.0234478634
 Total energy in the final basis set =    -3318.0234478634
 
 --------------------------------------------------------------
 
                    Orbital Energies (a.u.)
 --------------------------------------------------------------
 
 Alpha MOs
 -- Occupied --
******** -29.9589 -25.7896 -25.7869 -25.7863 -19.0560 -19.0487 -19.0481
-19.0425 -19.0336 -19.0105 -19.0091 -19.0075 -19.0051 -18.9841 -18.9767
-18.9753 -18.9735 -14.3332 -14.3332 -14.2524 -14.2402 -10.2134 -10.2125
-10.2022 -10.1953 -10.1904 -10.1784 -10.1714 -10.1616 -10.1567 -10.1512
-10.1327 -10.1288 -10.1282 -10.1271 -10.1157 -10.1144 -10.1080 -10.1080
-10.1043 -10.1041 -10.1033 -10.1021  -3.5412  -2.3176  -2.3125  -2.3106
 -1.0531  -1.0490  -1.0082  -0.9800  -0.9795  -0.9762  -0.9739  -0.9692
 -0.9620  -0.9345  -0.9167  -0.8874  -0.8780  -0.8666  -0.8643  -0.8260
 -0.8232  -0.7652  -0.7601  -0.7402  -0.7270  -0.7190  -0.7027  -0.6976
 -0.6829  -0.6607  -0.6500  -0.6104  -0.6001  -0.5814  -0.5608  -0.5492
 -0.5340  -0.5239  -0.5201  -0.5030  -0.4981  -0.4915  -0.4829  -0.4785
 -0.4725  -0.4720  -0.4649  -0.4586  -0.4531  -0.4449  -0.4411  -0.4351
 -0.4295  -0.4233  -0.4212  -0.4169  -0.4119  -0.4104  -0.4054  -0.4041
 -0.4001  -0.3973  -0.3920  -0.3864  -0.3836  -0.3821  -0.3800  -0.3789
 -0.3752  -0.3738  -0.3698  -0.3648  -0.3627  -0.3602  -0.3577  -0.3557
 -0.3515  -0.3497  -0.3469  -0.3459  -0.3435  -0.3403  -0.3390  -0.3373
 -0.3333  -0.3317  -0.3284  -0.3251  -0.3190  -0.3129  -0.3103  -0.3027
 -0.2996  -0.2983  -0.2965  -0.2923  -0.2919  -0.2862  -0.2842  -0.2765
[...]
    3   0.0153890   0.0369410  -0.0421123  -0.0056897   0.0601693  -0.1348344
            7           8           9          10          11          12
    1   0.1497287  -0.1006490   0.1004371   0.0028193   0.0026793  -0.0183850
    2   0.0027530   0.0411555  -0.0796340  -0.0128698  -0.0351410   0.0575719
    3   0.0894241   0.0810205  -0.1305871  -0.0748058   0.0055208   0.0433648
           13          14          15          16          17          18
    1  -0.0047273   0.0013321  -0.0117175   0.0419701  -0.0024036  -0.0465181
    2   0.0259202  -0.0239846   0.0328995   0.0019621   0.0419020  -0.0641004
    3  -0.0717864   0.0084435   0.1776825   0.0369899  -0.0671706  -0.0125567
           19          20          21          22          23          24
    1   0.0303202   0.0026203  -0.0411674   0.0162976   0.1490513  -0.1262413
    2  -0.1216638   0.1921727   0.0437883  -0.0883933  -0.0038557   0.0544558
    3  -0.0229641  -0.0107271   0.0642982  -0.0071036   0.0545606   0.1035682
           25          26          27          28          29          30
    1  -0.0220841   0.0211314   0.0323261  -0.0152984  -0.0433188  -0.0034174
    2  -0.0112895   0.0569568   0.0008852   0.0437541  -0.0401914  -0.0070566
    3   0.0187941  -0.0193160   0.0118406  -0.0328154  -0.0004777  -0.0014328
           31          32          33          34          35          36
    1   0.0008945  -0.0453769   0.0255916   0.0074346  -0.0497298  -0.0460832
    2  -0.0397846   0.0116678   0.0104646  -0.0401506   0.0208628   0.0063477
    3  -0.0303648   0.0102974  -0.0144759   0.0298543   0.0164438  -0.0133761
           37          38          39          40          41          42
    1   0.0555929   0.0145119  -0.0161422   0.0545147  -0.0418721  -0.0106238
    2  -0.0147743  -0.0084278  -0.0229401   0.0309640   0.0139484  -0.0660566
    3  -0.0370814   0.0558791  -0.0353817   0.0216094   0.0395223  -0.0334850
           43          44          45          46          47          48
    1   0.0076238  -0.0101812  -0.0066305   0.0489260  -0.0039202   0.0222654
    2   0.0764799   0.0139824  -0.0121326  -0.0096386  -0.0064879  -0.0403390
    3   0.0105137   0.0259130  -0.0618634   0.0137546   0.0052744   0.0153920
           49          50          51          52          53          54
    1  -0.0474437   0.0262039  -0.0665839   0.0071745  -0.0280602   0.0064556
    2   0.0091088  -0.0109826   0.0086818   0.0133376   0.0140409  -0.0251554
    3   0.0299188  -0.0087839  -0.0228088   0.0587165   0.0152079  -0.0574487
           55          56          57          58          59          60
    1   0.0564633  -0.1256648  -0.0500242   0.0039151  -0.0184271  -0.0047862
    2  -0.0038554   0.0756086  -0.0437822   0.0116576   0.0118957  -0.0953344
    3   0.0201291   0.0698012  -0.1534562   0.0227985   0.0010518   0.0060369
           61          62          63          64          65          66
    1  -0.0839264   0.0239904   0.0700625   0.0152181  -0.0181778   0.0362986
    2   0.0252024  -0.0192522  -0.0264462   0.0336228   0.0047229   0.0464263
    3  -0.0132586   0.0113253  -0.0335369  -0.2099590   0.0034737   0.0066937
           67          68          69          70
    1   0.0253293  -0.0094767   0.0067068   0.0138290
    2  -0.0097455   0.0204521  -0.0511876   0.0027329
    3   0.0418634  -0.0117661  -0.0168223   0.0487708
 Max gradient component =       2.100E-01
 RMS gradient           =       5.115E-02
 Computing fast CPCM-SWIG gradient
 Updating gradient with PCM contributions...
 -- total gradient after adding PCM contribution --
---------------------------------------------------
  Atom         X              Y              Z     
---------------------------------------------------
   1       0.000027       0.000022       0.000014
   2      -0.000046       0.000036       0.000018
   3       0.000017       0.000008       0.000006
   4      -0.000032      -0.000167       0.000104
   5       0.000018       0.000074      -0.000047
   6       0.000014      -0.000023      -0.000062
   7       0.000030       0.000009      -0.000002
   8       0.000012       0.000038      -0.000022
   9       0.000000       0.000041      -0.000002
  10       0.000021       0.000047      -0.000021
  11      -0.000043      -0.000035      -0.000007
  12      -0.000003       0.000023      -0.000013
  13       0.000005      -0.000007       0.000000
  14       0.000005       0.000052       0.000055
  15      -0.000003      -0.000015      -0.000011
  16      -0.000030      -0.000020      -0.000064
  17       0.000008      -0.000011      -0.000002
  18      -0.000015       0.000014       0.000019
  19       0.000025       0.000035       0.000081
  20      -0.000014       0.000008      -0.000001
  21       0.000016       0.000015      -0.000030
  22      -0.000002      -0.000007       0.000021
  23       0.000025       0.000016       0.000016
  24      -0.000008       0.000018       0.000033
  25      -0.000067      -0.000012      -0.000002
  26       0.000037       0.000012       0.000001
  27      -0.000030      -0.000079      -0.000096
  28       0.000017       0.000005       0.000006
  29      -0.000004       0.000018       0.000025
  30       0.000066       0.000012      -0.000026
  31       0.000005       0.000006      -0.000000
  32      -0.000013      -0.000019       0.000009
  33       0.000010       0.000014       0.000056
  34       0.000021      -0.000014      -0.000014
  35       0.000006      -0.000004       0.000023
  36      -0.000020       0.000022      -0.000024
  37       0.000018      -0.000017       0.000018
  38      -0.000005       0.000007       0.000013
  39       0.000021      -0.000009      -0.000029
  40      -0.000006       0.000004       0.000012
  41       0.000011       0.000004       0.000023
  42      -0.000021      -0.000076       0.000003
  43      -0.000032       0.000011       0.000021
  44       0.000026       0.000029       0.000058
  45      -0.000006      -0.000007      -0.000017
  46       0.000006       0.000001      -0.000032
  47      -0.000006      -0.000026      -0.000024
  48       0.000003      -0.000004      -0.000003
  49       0.000009       0.000023      -0.000005
  50      -0.000039      -0.000006      -0.000055
  51       0.000010       0.000003      -0.000020
  52       0.000017       0.000000      -0.000002
  53      -0.000034      -0.000005       0.000031
  54       0.000029       0.000006      -0.000009
  55       0.000003       0.000002      -0.000025
  56      -0.000018      -0.000007      -0.000005
  57       0.000006      -0.000014      -0.000012
  58       0.000043      -0.000024      -0.000013
  59       0.000010      -0.000009      -0.000008
  60      -0.000025      -0.000001       0.000016
  61      -0.000034      -0.000020      -0.000052
  62      -0.000005      -0.000022       0.000022
  63       0.000015      -0.000018      -0.000039
  64       0.000006       0.000012      -0.000018
  65      -0.000033       0.000040       0.000108
  66       0.000015      -0.000005      -0.000000
  67      -0.000018       0.000029       0.000034
  68      -0.000016      -0.000047       0.000017
  69      -0.000004       0.000012      -0.000045
  70      -0.000003       0.000001      -0.000007
---------------------------------------------------
 Number of fixed atoms: 0
 Gradient time:  CPU 21238.88 s  wall 1156.53 s

     Step 17	:
        Energy is -3318.0235257691
                            Maximum         Tolerance       Converged?
         Gradient           5.41581378e-05	3.00000000e-04	true
         Displacement       2.43000490e-03	1.20000000e-03	false
         Energy change      8.45081559e-07	1.00000000e-06	true

	 Optimization Converged in 17 cycles

 *****************************************************
             End of BFGS Algorithm
 *****************************************************
		----------------------------------
		   Verification of Optimization
		----------------------------------

 Eigenvalues of Hessian in Optimization Verification
   0.00119863   0.00636459   0.01417787   0.03593101   0.06644275
   0.09999864   0.10000002   0.10000004   0.10000020   0.10000067
   0.10000116   0.10000188   0.10000335   0.10000454   0.10000776
   0.10000933   0.10002108   0.10003348   0.10003800   0.10005995
   0.10010841   0.10022013   0.10039207   0.10044750   0.10059244
   0.10086326   0.10091515   0.10221619   0.10269420   0.10313197
   0.10361701   0.10445848   0.10517078   0.10674427   0.10770084
   0.10809231   0.10954534   0.11161229   0.11239669   0.11376979
   0.11605596   0.11661998   0.11905449   0.11943359   0.12019247
   0.12220805   0.12268729   0.12413526   0.12441748   0.12507611
   0.12563675   0.12650102   0.12675260   0.12729905   0.12736949
   0.12800425   0.12878043   0.12986013   0.13071965   0.13163828
   0.13374350   0.13442416   0.13531126   0.13717015   0.13892669
   0.14010254   0.14089283   0.14170032   0.14240944   0.14321902
   0.14495826   0.14533851   0.14582493   0.14975056   0.15067693
   0.15086039   0.15138858   0.15510769   0.15564632   0.15631142
   0.15661049   0.15803878   0.15853406   0.15885327   0.15930268
   0.16053457   0.16157287   0.17397131   0.17483159   0.17555996
   0.17583122   0.17713923   0.17815368   0.17879814   0.18000981
   0.18060997   0.18094451   0.18166645   0.18331256   0.18416804
   0.18523576   0.18562771   0.18797379   0.19535541   0.19629512
   0.19635708   0.19731364   0.19815612   0.19874088   0.19911846
   0.19915966   0.19931709   0.19959230   0.19974252   0.19993788
   0.19994926   0.19995188   0.19998516   0.19999172   0.19999689
   0.19999976   0.20000059   0.20001076   0.20013574   0.20072977
   0.20290578   0.20401156   0.23731119   0.31725694   0.32681888
   0.37134609   0.38120561   0.40992911   0.41342277   0.43136791
   0.43311568   0.45833203   0.46153692   0.46323776   0.47067118
   0.47829576   0.48063829   0.48531681   0.48636293   0.48828126
   0.48981919   0.49800659   0.49928352   0.49970043   0.49981385
   0.49986439   0.50000000   0.50000000   0.50000000   0.50000000
   0.50000000   0.50000000   0.50000000   0.50000000   0.50000000
   0.50000000   0.50000000   0.50000000   0.50000000   0.50000000
   0.50000000   0.50000000   0.50000000   0.50000000   0.50000000
   0.50000000   0.50000000   0.50000000   0.50000000   0.50000000
   0.50000000   0.50000000   0.50000000   0.50000000   0.50000000
   0.50000000   0.50000000   0.50000000   0.50000000   0.50000000
   0.50000000   0.50000000   0.50000000   0.50000000   0.50000000
   0.50000000   0.50000000   0.50000023   0.50000061   0.50000528
   0.50001483   0.50004401   0.50020844   0.50108157   0.50556422
   0.51159524   0.54702578   0.55022647   0.61300581

 Found a minimum
		---------------------------------
		       End of Verification
		---------------------------------

 Final energy is -3318.023525769105

	******************************
	**  OPTIMIZATION CONVERGED  **
	******************************
 Adding empirical dispersion correction 
 ----------------------------------------------------------------
 Doing -D3(BJ) with
 s6  =   1.00000
 s8  =   2.23820
 a1  =   0.45290
 a2  =   4.65500
 -D3 energy without 3body term =     -0.1264460874 hartrees
 ----------------------------------------------------------------
             Standard Nuclear Orientation (Angstroms)
    I     Atom           X                Y                Z
 ----------------------------------------------------------------
    1      C      -1.1690422224     1.7876231871    -1.8806618253
    2      C      -4.3976432841    -2.0395405106     0.2903919173
    3      H      -5.1007890356    -2.6009348573     0.9343307386
    4      N      -3.0421049128    -2.2194405906     0.7891581723
    5      H      -2.4668551143    -2.7251072525     0.1084178898
    6      C      -4.4536677838    -2.6834065306    -1.1310773365
    7      O      -5.5648082399    -2.6149482322    -1.7195092665
    8      C      -2.5436555133    -1.8052885258     1.9708455136
    9      O      -3.2071851899    -1.1556788307     2.8039635908
   10      N      -1.9642713415     2.3752934391    -0.9879823567
   11      C      -1.1027830577    -2.2064252331     2.2407276897
   12      H      -0.8033502339    -3.0532802562     1.6042996345
   13      H      -1.0370753174    -2.5134947961     3.2947669661
   14      C      -0.0983145770    -1.0556645308     2.0104015265
   15      C      -0.2391531849     0.0638642067     3.0825229188
   16      C       1.3530423889    -1.6054222835     2.2243383783
   17      H       1.3762824659    -2.1962123558     3.1510233176
   18      H       2.0228785389    -0.7396153758     2.3398604478
   19      C       1.8925080269    -2.4742394399     1.0929104905
   20      O       1.8273056055    -3.7211557182     1.1175721179
   21      N       2.4594765028    -1.7624926694     0.0985685778
   22      H       2.4418029423    -0.7398297770     0.2236079164
   23      C       4.8651888502    -2.0673441862    -0.5256013481
   24      O       5.6973959728    -2.4418616541    -1.3996575739
   25      C       2.3835753471     3.0601532799    -0.1865747891
   26      N       2.9019499929     1.8329046457    -0.1072804078
   27      C       4.1242996951     1.2657823883    -0.6925258152
   28      H       4.4118132374     0.4427237831    -0.0213544488
   29      H       4.9126471315     2.0306244913    -0.6515059748
   30      C       3.1274428337     4.1692364070    -0.8719057514
   31      H       3.1067854508     5.0582025191    -0.2244205647
   32      H       4.1669175041     3.9123500943    -1.1079821562
   33      C       3.9473834652     0.7801274276    -2.1421383074
   34      H       3.7980999191     1.6754193264    -2.7699362459
   35      H       4.9102907973     0.3372516813    -2.4524105221
   36      C       2.7868579157    -0.1977556494    -2.4285748504
   37      H       1.9128537698     0.0910088686    -1.8250694768
   38      H       2.4826334957    -0.0285189922    -3.4764179675
   39      C       3.0382162298    -1.7137720036    -2.3057086404
   40      H       2.1298341453    -2.2148373495    -2.6849917983
   41      H       3.8746294010    -2.0132981731    -2.9575833649
   42      C       3.3596412320    -2.2823324828    -0.9102606118
   43      H       3.2076219639    -3.3732919169    -0.9431264269
   44      C      -4.2821384116     1.8143561888    -0.3712706635
   45      H      -4.1772618166     2.0509582279     0.7001617302
   46      H      -5.3244588555     2.0441297440    -0.6528006088
   47      C      -1.5492311673     1.6941596103    -3.3328384338
   48      H      -2.0384898818     2.6068709759    -3.6982817894
   49      H      -0.6314095305     1.5181342781    -3.9083200003
   50      C      -3.9715955956     0.3320679833    -0.5866642671
   51      H      -2.9202305099     0.1490916537    -0.3072328383
   52      H      -4.0750803237     0.0732251129    -1.6564114019
   53      C      -4.8664566224    -0.5750526486     0.2575582200
   54      H      -4.8946907910    -0.1969250596     1.2912610752
   55      H      -5.8947669194    -0.5789469567    -0.1383599194
   56      O      -3.3822386860    -3.2073269492    -1.5620504622
   57      O       5.1200996086    -1.5614447128     0.6055136660
   58      O      -0.2608027860    -0.5085541382     0.7370049475
   59      Fe      0.1604540397     1.3639790782     0.6100847011
   60      O      -0.1555276602     1.2785411233     2.6001358248
   61      O      -0.0591878240     1.3002569945    -1.4756152653
   62      O      -1.5562408165     2.3697384288     0.3140849008
   63      O       1.2302842047     3.2624648382     0.3217984691
   64      O      -0.3330981441    -0.2012935195     4.2876120285
   65      O       2.1147731247     0.9152426325     0.5258217839
   66      H      -2.2321477794     0.8439849102    -3.4926678699
   67      H       2.6021616934     4.4223214484    -1.8067479406
   68      C      -3.3660865172     2.7451762221    -1.1746791897
   69      H      -3.4888403798     3.7907666699    -0.8514670469
   70      H      -3.5864382656     2.6862619923    -2.2479315272
 ----------------------------------------------------------------
 Nuclear Repulsion Energy =        6168.97109680 hartrees
 There are      164 alpha and      159 beta electrons

Z-matrix Print:
$molecule
-3 6
Fe
O  1 1.923525
C  2 1.395447 1 114.606624
C  3 1.544752 2 110.635190 1 149.180379 0
H  4 1.099822 3 108.182009 2 -172.254911 0
H  4 1.100847 3 108.059399 2 70.053353 0
C  4 1.519823 3 113.164460 2 -53.270544 0
O  7 1.247538 4 121.539853 3 -79.093579 0
N  7 1.347724 4 115.164849 3 101.887362 0
H  9 1.024704 7 121.769584 4 -3.065061 0
C  9 1.455547 7 127.365939 4 176.937108 0
H  11 1.106451 9 109.250270 7 -64.804348 0
C  11 1.538047 9 114.133739 7 55.646054 0
H  13 1.101054 11 108.347116 9 -63.678663 0
H  13 1.101902 11 106.783661 9 179.819398 0
C  13 1.528514 11 113.479630 9 57.842235 0
H  16 1.103146 13 108.640188 11 -48.030441 0
H  16 1.105472 13 109.919805 11 68.966432 0
C  16 1.529709 13 112.237612 11 -168.103238 0
H  19 1.102246 16 108.999199 13 56.974969 0
H  19 1.103851 16 110.945724 13 -60.650413 0
C  19 1.533311 16 113.152775 13 178.160609 0
H  22 1.097222 19 111.096917 16 70.204519 0
H  22 1.101269 19 110.854703 16 -169.195039 0
N  22 1.461764 19 110.634165 16 -49.358322 0
C  25 1.332150 22 126.763305 19 107.787840 0
O  26 1.278032 25 118.310445 22 -166.540752 0
O  25 1.364514 22 114.184199 19 -56.742441 0
C  26 1.504027 25 121.568602 22 13.630081 0
H  29 1.097525 26 107.748752 25 159.838339 0
H  29 1.098164 26 112.474757 25 39.243616 0
H  29 1.102142 26 110.156337 25 -81.891516 0
C  3 1.556478 2 109.635020 1 25.195073 0
O  33 1.237487 3 121.569294 2 169.065171 0
O  33 1.309630 3 114.055834 2 -15.366985 0
C  11 1.561498 9 107.120783 7 179.243819 0
O  36 1.259195 11 115.762663 9 -179.801637 0
O  36 1.268145 11 116.705807 9 -0.085618 0
C  3 1.566665 2 111.719566 1 -89.568863 0
H  39 1.099235 3 108.862873 2 -168.955320 0
H  39 1.100749 3 107.581302 2 73.364176 0
C  39 1.525121 3 115.231922 2 -47.273529 0
O  42 1.248863 39 122.389048 3 -95.736213 0
N  42 1.347870 39 113.281774 3 85.524018 0
H  44 1.030430 42 115.298794 39 -0.890796 0
C  44 1.448539 42 125.850518 39 162.332060 0
H  46 1.101990 44 106.877371 42 20.006813 0
C  46 1.540730 44 111.635604 42 137.932350 0
H  48 1.101927 46 106.089364 44 169.814540 0
H  48 1.104572 46 108.370692 44 -75.202023 0
C  48 1.541617 46 117.975328 44 45.862234 0
H  51 1.100676 48 110.106501 46 -61.525889 0
H  51 1.104160 48 105.740761 46 -174.625336 0
C  51 1.544384 48 119.036537 46 65.616871 0
H  54 1.103614 51 107.849123 48 149.407342 0
H  54 1.104354 51 110.436516 48 33.445594 0
C  54 1.539005 51 117.444598 48 -89.468998 0
H  57 1.099162 54 109.705319 51 -174.107952 0
H  57 1.100255 54 111.626835 51 66.116025 0
N  57 1.469108 54 113.665729 51 -52.757029 0
C  60 1.334593 57 130.880795 54 -83.936981 0
O  61 1.276501 60 118.229410 57 173.592955 0
O  60 1.364760 57 113.899948 54 89.714999 0
C  61 1.501027 60 120.936824 57 -5.565122 0
H  64 1.096463 61 113.266528 60 -10.829724 0
H  64 1.099966 61 108.607413 60 -132.717318 0
H  64 1.101772 61 108.714721 60 110.302203 0
C  46 1.568712 44 112.114049 42 -95.709250 0
O  68 1.263648 46 114.950285 44 -176.657444 0
O  68 1.265043 46 117.868489 44 4.016966 0
$end

 -----------------------------------------------------------------------
                  END OF GEOMETRY OPTIMIZER USING LIBOPT3               
 -----------------------------------------------------------------------
 Total job time:  58199.20s(wall), 1005105.13s(cpu) 
 Tue Jun 11 04:18:15 2024

        *************************************************************
        *                                                           *
        *  Thank you very much for using Q-Chem.  Have a nice day.  *
        *                                                           *
        *************************************************************


