
Running Job 1 of 1 C_FeABO_ccL_3sextet_SfS_b3lypD3bj_ccpVDZ_pcmH2O_opt.in
qchem C_FeABO_ccL_3sextet_SfS_b3lypD3bj_ccpVDZ_pcmH2O_opt.in_1172648.0 /data/scratch/C_FeABO_ccL_3sextet_SfS_b3lypD3bj_ccpVDZ_pcmH2O_opt20230404192638/ 0
/opt/qchem/6.0.1/exe/qcprog.exe_s C_FeABO_ccL_3sextet_SfS_b3lypD3bj_ccpVDZ_pcmH2O_opt.in_1172648.0 /data/scratch/C_FeABO_ccL_3sextet_SfS_b3lypD3bj_ccpVDZ_pcmH2O_opt20230404192638/
                  Welcome to Q-Chem
     A Quantum Leap Into The Future Of Chemistry


 Q-Chem 6.0, Q-Chem, Inc., Pleasanton, CA (2022)

 E. Epifanovsky,  A. T. B. Gilbert,  Xintian Feng,  Joonho Lee,  Yuezhi Mao,  
 N. Mardirossian,  P. Pokhilko,  A. White,  M. Wormit,  M. P. Coons,  
 A. L. Dempwolff,  Zhengting Gan,  D. Hait,  P. R. Horn,  L. D. Jacobson,  
 I. Kaliman,  J. Kussmann,  A. W. Lange,  Ka Un Lao,  D. S. Levine,  Jie Liu,  
 S. C. McKenzie,  A. F. Morrison,  K. Nanda,  F. Plasser,  D. R. Rehn,  
 M. L. Vidal,  Zhi-Qiang You,  Ying Zhu,  B. Alam,  B. Albrecht,  
 A. Aldossary,  E. Alguire,  J. H. Andersen,  V. Athavale,  D. Barton,  
 K. Begam,  A. Behn,  N. Bellonzi,  Y. A. Bernard,  E. J. Berquist,  
 H. Burton,  A. Carreras,  K. Carter-Fenk,  Romit Chakraborty,  
 Chandrima Chakravarty,  Junhan Chen,  A. D. Chien,  K. D. Closser,  
 V. Cofer-Shabica,  L. Cunha,  S. Dasgupta,  Jia Deng,  M. de Wergifosse,  
 M. Diedenhofen,  Hainam Do,  S. Ehlert,  Po-Tung Fang,  S. Fatehi,  
 Qingguo Feng,  T. Friedhoff,  B. Ganoe,  J. Gayvert,  Qinghui Ge,  
 G. Gidofalvi,  M. Goldey,  J. Gomes,  C. Gonzalez-Espinoza,  S. Gulania,  
 A. Gunina,  J. A. Gyamfi,  M. W. D. Hanson-Heine,  P. H. P. Harbach,  
 A. W. Hauser,  M. F. Herbst,  M. Hernandez Vera,  M. Hodecker,  
 Z. C. Holden,  S. Houck,  Xunkun Huang,  Kerwin Hui,  B. C. Huynh,  
 K. Ikeda,  M. Ivanov,  Hyunjun Ji,  Zuxin Jin,  Hanjie Jiang,  B. Kaduk,  
 S. Kaehler,  R. Kang,  K. Khistyaev,  Jaehoon Kim,  Yongbin Kim,  
 P. Klunzinger,  Z. Koczor-Benda,  Joong Hoon Koh,  D. Kosenkov,  
 Saikiran Kotaru,  L. Koulias,  T. Kowalczyk,  C. M. Krauter,  K. Kue,  
 A. Kunitsa,  T. Kus,  A. Landau,  K. V. Lawler,  D. Lefrancois,  S. Lehtola,  
 Rain Li,  Shaozhi Li,  Yi-Pei Li,  Jiashu Liang,  M. Liebenthal,  
 Hung-Hsuan Lin,  You-Sheng Lin,  Fenglai Liu,  Kuan-Yu Liu,  
 M. Loipersberger,  A. Luenser,  C. Malbon,  A. Manjanath,  P. Manohar,  
 E. Mansoor,  S. F. Manzer,  Shan-Ping Mao,  A. V. Marenich,  T. Markovich,  
 S. Mason,  F. Matz,  S. A. Maurer,  P. F. McLaughlin,  M. F. S. J. Menger,  
 J.-M. Mewes,  S. A. Mewes,  P. Morgante,  Mohammad Mostafanejad,  
 J. W. Mullinax,  K. J. Oosterbaan,  G. Paran,  V. Parravicini,  
 Alexander C. Paul,  Suranjan K. Paul,  F. Pavosevic,  Zheng Pei,  S. Prager,  
 E. I. Proynov,  E. Ramos,  B. Rana,  A. E. Rask,  A. Rettig,  R. M. Richard,  
 F. Rob,  E. Rossomme,  T. Scheele,  M. Scheurer,  M. Schneider,  
 P. E. Schneider,  N. Sergueev,  S. M. Sharada,  Hengyuan Shen,  
 W. Skomorowski,  D. W. Small,  C. J. Stein,  Yingli Su,  Yu-Chuan Su,  
 E. J. Sundstrom,  Zhen Tao,  J. Thirman,  Hung-Yi Tsai,  T. Tsuchimochi,  
 N. M. Tubman,  C. Utku,  S. P. Veccham,  O. Vydrov,  J. Wenzel,  
 Jonathan Wong,  J. Witte,  A. Yamada,  Chou-Hsun Yang,  Kun Yao,  
 S. Yeganeh,  S. R. Yost,  A. Zech,  F. Zeller,  Igor Ying Zhang,  
 Xing Zhang,  Yu Zhang,  D. Zuev,  A. Aspuru-Guzik,  A. T. Bell,  
 N. A. Besley,  K. B. Bravaya,  B. R. Brooks,  D. Casanova,  Jeng-Da Chai,  
 Hsing-Ta Chen,  S. Coriani,  C. J. Cramer,  A. E. DePrince, III,  
 R. A. DiStasio Jr.,  A. Dreuw,  B. D. Dunietz,  T. R. Furlani,  
 W. A. Goddard III,  S. Grimme,  S. Hammes-Schiffer,  T. Head-Gordon,  
 W. J. Hehre,  Chao-Ping Hsu,  T.-C. Jagau,  Yousung Jung,  A. Klamt,  
 Jing Kong,  D. S. Lambrecht,  Xiangyuan Li,  WanZhen Liang,  N. J. Mayhall,  
 C. W. McCurdy,  J. B. Neaton,  T. Neudecker,  C. Ochsenfeld,  
 J. A. Parkhill,  R. Peverati,  V. A. Rassolov,  Haisheng Ren,  Yihan Shao,  
 L. V. Slipchenko,  R. P. Steele,  J. E. Subotnik,  A. J. W. Thom,  
 A. Tkatchenko,  D. G. Truhlar,  T. Van Voorhis,  Fan Wang,  
 T. A. Wesolowski,  K. B. Whaley,  H. L. Woodcock III,  P. M. Zimmerman,  
 S. Faraji,  P. M. W. Gill,  M. Head-Gordon,  J. M. Herbert,  A. I. Krylov

 Contributors to earlier versions of Q-Chem not listed above: 
 R. D. Adamson,  B. Austin,  R. Baer,  J. Baker,  G. J. O. Beran,  
 K. Brandhorst,  S. T. Brown,  E. F. C. Byrd,  Arup K. Chakraborty,  
 G. K. L. Chan,  Chun-Min Chang,  Yunqing Chen,  C.-L. Cheng,  
 Siu Hung Chien,  D. M. Chipman,  D. L. Crittenden,  H. Dachsel,  
 R. J. Doerksen,  A. D. Dutoi,  R. G. Edgar,  J. Fosso-Tande,  
 L. Fusti-Molnar,  D. Ghosh,  A. Ghysels,  A. Golubeva-Zadorozhnaya,  
 J. Gonthier,  M. S. Gordon,  S. R. Gwaltney,  G. Hawkins,  J. E. Herr,  
 A. Heyden,  S. Hirata,  E. G. Hohenstein,  G. Kedziora,  F. J. Keil,  
 C. Kelley,  Jihan Kim,  R. A. King,  R. Z. Khaliullin,  P. P. Korambath,  
 W. Kurlancheek,  A. Laurent,  A. M. Lee,  M. S. Lee,  S. V. Levchenko,  
 Ching Yeh Lin,  D. Liotard,  E. Livshits,  R. C. Lochan,  I. Lotan,  
 L. A. Martinez-Martinez,  P. E. Maslen,  N. Nair,  D. P. O'Neill,  
 D. Neuhauser,  E. Neuscamman,  C. M. Oana,  R. Olivares-Amaya,  R. Olson,  
 T. M. Perrine,  B. Peters,  P. A. Pieniazek,  A. Prociuk,  Y. M. Rhee,  
 J. Ritchie,  M. A. Rohrdanz,  E. Rosta,  N. J. Russ,  H. F. Schaefer III,  
 M. W. Schmidt,  N. E. Schultz,  S. Sharma,  N. Shenvi,  C. D. Sherrill,  
 A. C. Simmonett,  A. Sodt,  T. Stein,  D. Stuck,  K. S. Thanthiriwatte,  
 V. Vanovschi,  L. Vogt,  Tao Wang,  A. Warshel,  M. A. Watson,  
 C. F. Williams,  Q. Wu,  X. Xu,  Jun Yang,  W. Zhang,  Yan Zhao

   Please cite Q-Chem as follows:
  "Software for the frontiers of quantum chemistry:
   An overview of developments in the Q-Chem 5 package"
   J. Chem. Phys. 155, 084801 (2021)
   https://doi.org/10.1063/5.0055522 (open access)

 Q-Chem 6.0.2 for Intel X86 EM64T Linux

 Parts of Q-Chem use Armadillo 9.900.5 (Nocturnal Misbehaviour).
 http://arma.sourceforge.net/

 Q-Chem begins on Wed Apr  5 08:59:31 2023  

 Host: 
0

     Scratch files written to /data/scratch/C_FeABO_ccL_3sextet_SfS_b3lypD3bj_ccpVDZ_pcmH2O_opt20230404192638//
 Dec722 |scratch|qcdevops|jenkins|workspace|build_RNUM 8907   
 Processing $rem in /opt/qchem/6.0.1/config/preferences:
 Processing $rem in /home/sgardner/.qchemrc:
 Symmetry turned off for PCM/SM12/SMD calculation

 Checking the input file for inconsistencies... 	...done.

--------------------------------------------------------------
User input:
--------------------------------------------------------------
$molecule
-3 6
N   -2.4975600    2.6088570   -0.7487940
C   -4.4232520   -2.3585430   -0.1703010
H   -4.9664470   -2.9405750    0.5902580
N   -2.9918200   -2.3855470    0.1543420
H   -2.4562330   -2.8609470   -0.5705620
C   -4.6037490   -3.0995860   -1.5291730
O   -5.8016180   -3.1992180   -1.9661050
C   -2.4263810   -1.9710040    1.3105610
O   -3.0887730   -1.3818410    2.2195100
C   -2.0431190    3.6144800    0.0014300
C   -2.7868550    4.9172460    0.1052070
H   -2.8799780    5.4089350   -0.8692440
H   -3.7946590    4.7784850    0.5103640
H   -2.2303930    5.5743290    0.7741780
C   -0.9577680   -2.3264210    1.5089550
H   -0.5909880   -2.9766990    0.7112200
H   -0.9067660   -2.8883020    2.4494660
C    0.0356080   -1.1356240    1.6217410
C   -0.3938260   -0.1488060    2.7452010
C    1.4549300   -1.6660450    2.0182870
H    1.3536610   -2.3725150    2.8491720
H    2.0421550   -0.8168890    2.3825460
C    2.1939200   -2.3394890    0.8729720
O    1.7526500   -3.3782780    0.2934050
N    3.3649140   -1.7584430    0.5287760
H    3.7502600   -0.9763000    1.0528450
C    5.6452940   -1.5096280   -0.2931120
O    6.6100450   -1.8981020   -1.0333580
N    2.4007850    2.0889700   -1.0222420
C    2.7347040    2.2636510    0.2550130
C    4.1520440    2.5267180    0.6692690
H    4.1392810    3.0529730    1.6258790
H    4.6991930    1.5823530    0.7968880
H    4.6928040    3.1342930   -0.0615870
C    3.2933570    1.9460380   -2.1867260
H    2.6444340    2.0713980   -3.0560120
H    4.0169940    2.7683000   -2.1836200
C    4.0193920    0.5869730   -2.2114710
H    4.6660530    0.5651560   -3.1001350
H    4.6791830    0.5332620   -1.3405010
C    3.0606450   -0.6198230   -2.2173590
H    2.2844140   -0.4654720   -1.4596550
H    2.5431500   -0.6591880   -3.1873600
C    3.7231460   -1.9887570   -1.9612080
H    2.9755350   -2.7675070   -2.1532010
H    4.5583110   -2.1600330   -2.6522770
C    4.2748030   -2.2107760   -0.5212570
H    4.4465500   -3.2894630   -0.4065880
C   -4.7429590    1.5033020   -0.9207280
H   -4.8162660    1.6963000    0.1589310
H   -5.7352160    1.7152350   -1.3430550
C   -3.7454250    2.5173790   -1.5190270
H   -4.1855710    3.5164230   -1.5516230
H   -3.4740500    2.2350780   -2.5425650
C   -4.3595720    0.0267170   -1.1633330
H   -3.2783280   -0.0637860   -1.0387820
H   -4.5924520   -0.2451170   -2.2034090
C   -5.0518850   -0.9444230   -0.1953820
H   -4.9970230   -0.5395630    0.8210600
H   -6.1107080   -1.0703560   -0.4521150
O   -3.5370010   -3.5543540   -2.0939230
O    5.6949400   -0.5912770    0.6175580
O    0.1252370   -0.4158220    0.3949850
Fe   -0.0681860    1.4869600    0.3850730
O   -0.6087150    1.0857690    2.3262360
O   -1.7088920    1.4407770   -0.7483740
O   -0.9243260    3.4352650    0.6383320
O    1.0294480    1.8530080   -1.2747030
O   -0.4507160   -0.5194540    3.9458500
O    1.7881450    2.1761360    1.1475450
$end

$rem
BASIS  =  gen
DFT_D  =  D3_BJ
GUI  =  2
JOB_TYPE  =  Optimization
METHOD  =  B3LYP
BASIS GEN
PURECART 11
SCF_CONVERGENCE  =  8
SOLVENT_METHOD  =  PCM
$end

$pcm
THEORY  CPCM
$end

$solvent
DIELECTRIC  78.39
$end

$van_der_waals
26   2.44
$end

$basis
H     0
S   4   1.00
1.301000D+01           1.968500D-02
1.962000D+00           1.379770D-01
4.446000D-01           4.781480D-01
1.220000D-01           5.012400D-01
S   1   1.00
1.220000D-01           1.000000D+00
P   1   1.00
7.270000D-01           1.0000000
****
C     0
S   9   1.00
6.665000D+03           6.920000D-04
1.000000D+03           5.329000D-03
2.280000D+02           2.707700D-02
6.471000D+01           1.017180D-01
2.106000D+01           2.747400D-01
7.495000D+00           4.485640D-01
2.797000D+00           2.850740D-01
5.215000D-01           1.520400D-02
1.596000D-01          -3.191000D-03
S   9   1.00
6.665000D+03          -1.460000D-04
1.000000D+03          -1.154000D-03
2.280000D+02          -5.725000D-03
6.471000D+01          -2.331200D-02
2.106000D+01          -6.395500D-02
7.495000D+00          -1.499810D-01
2.797000D+00          -1.272620D-01
5.215000D-01           5.445290D-01
1.596000D-01           5.804960D-01
S   1   1.00
1.596000D-01           1.000000D+00
P   4   1.00
9.439000D+00           3.810900D-02
2.002000D+00           2.094800D-01
5.456000D-01           5.085570D-01
1.517000D-01           4.688420D-01
P   1   1.00
1.517000D-01           1.000000D+00
D   1   1.00
5.500000D-01           1.0000000
****
N     0
S   9   1.00
9.046000D+03           7.000000D-04
1.357000D+03           5.389000D-03
3.093000D+02           2.740600D-02
8.773000D+01           1.032070D-01
2.856000D+01           2.787230D-01
1.021000D+01           4.485400D-01
3.838000D+00           2.782380D-01
7.466000D-01           1.544000D-02
2.248000D-01          -2.864000D-03
S   9   1.00
9.046000D+03          -1.530000D-04
1.357000D+03          -1.208000D-03
3.093000D+02          -5.992000D-03
8.773000D+01          -2.454400D-02
2.856000D+01          -6.745900D-02
1.021000D+01          -1.580780D-01
3.838000D+00          -1.218310D-01
7.466000D-01           5.490030D-01
2.248000D-01           5.788150D-01
S   1   1.00
2.248000D-01           1.000000D+00
P   4   1.00
1.355000D+01           3.991900D-02
2.917000D+00           2.171690D-01
7.973000D-01           5.103190D-01
2.185000D-01           4.622140D-01
P   1   1.00
2.185000D-01           1.000000D+00
D   1   1.00
8.170000D-01           1.0000000
****
O     0
S   9   1.00
1.172000D+04           7.100000D-04
1.759000D+03           5.470000D-03
4.008000D+02           2.783700D-02
1.137000D+02           1.048000D-01
3.703000D+01           2.830620D-01
1.327000D+01           4.487190D-01
5.025000D+00           2.709520D-01
1.013000D+00           1.545800D-02
3.023000D-01          -2.585000D-03
S   9   1.00
1.172000D+04          -1.600000D-04
1.759000D+03          -1.263000D-03
4.008000D+02          -6.267000D-03
1.137000D+02          -2.571600D-02
3.703000D+01          -7.092400D-02
1.327000D+01          -1.654110D-01
5.025000D+00          -1.169550D-01
1.013000D+00           5.573680D-01
3.023000D-01           5.727590D-01
S   1   1.00
3.023000D-01           1.000000D+00
P   4   1.00
1.770000D+01           4.301800D-02
3.854000D+00           2.289130D-01
1.046000D+00           5.087280D-01
2.753000D-01           4.605310D-01
P   1   1.00
2.753000D-01           1.000000D+00
D   1   1.00
1.185000D+00           1.0000000
****
Fe     0
S   20   1.00
4.316265D+06           8.048803D-06
6.463424D+05           6.258306D-05
1.470897D+05           3.290239D-04
4.166152D+04           1.387355D-03
1.359077D+04           5.023256D-03
4.905750D+03           1.610140D-02
1.912746D+03           4.590034D-02
7.926043D+02           1.136154D-01
3.448065D+02           2.283869D-01
1.558999D+02           3.221159D-01
7.223091D+01           2.383661D-01
3.272506D+01           7.404667D-02
1.566762D+01           9.214197D-02
7.503483D+00           9.339790D-02
3.312223D+00           1.573965D-02
1.558471D+00          -4.186682D-04
6.839140D-01           5.376318D-05
1.467570D-01          -3.816654D-05
7.058300D-02           4.319603D-05
3.144900D-02          -3.401019D-06
S   20   1.00
4.316265D+06          -4.155954D-06
6.463424D+05          -3.231401D-05
1.470897D+05          -1.699525D-04
4.166152D+04          -7.171369D-04
1.359077D+04          -2.603625D-03
4.905750D+03          -8.399109D-03
1.912746D+03          -2.434109D-02
7.926043D+02          -6.251948D-02
3.448065D+02          -1.365929D-01
1.558999D+02          -2.312707D-01
7.223091D+01          -2.383734D-01
3.272506D+01           3.123837D-02
1.566762D+01           5.086818D-01
7.503483D+00           4.987695D-01
3.312223D+00           9.033552D-02
1.558471D+00          -6.005337D-03
6.839140D-01           2.312454D-04
1.467570D-01          -5.643680D-04
7.058300D-02           4.992260D-04
3.144900D-02          -1.015293D-04
S   20   1.00
4.316265D+06           9.532178D-07
6.463424D+05           7.414605D-06
1.470897D+05           3.898393D-05
4.166152D+04           1.647152D-04
1.359077D+04           5.985980D-04
4.905750D+03           1.942390D-03
1.912746D+03           5.687237D-03
7.926043D+02           1.501329D-02
3.448065D+02           3.452455D-02
1.558999D+02           6.495820D-02
7.223091D+01           7.716194D-02
3.272506D+01          -1.873411D-02
1.566762D+01          -3.009185D-01
7.503483D+00          -4.554661D-01
3.312223D+00           1.286463D-01
1.558471D+00           7.183316D-01
6.839140D-01           4.051743D-01
1.467570D-01           2.168227D-02
7.058300D-02          -8.343566D-03
3.144900D-02           3.658979D-03
S   20   1.00
4.316265D+06          -2.063008D-07
6.463424D+05          -1.604169D-06
1.470897D+05          -8.438437D-06
4.166152D+04          -3.563151D-05
1.359077D+04          -1.295998D-04
4.905750D+03          -4.201534D-04
1.912746D+03          -1.231954D-03
7.926043D+02          -3.248922D-03
3.448065D+02          -7.493717D-03
1.558999D+02          -1.410102D-02
7.223091D+01          -1.691600D-02
3.272506D+01           4.218996D-03
1.566762D+01           6.833810D-02
7.503483D+00           1.098201D-01
3.312223D+00          -4.009005D-02
1.558471D+00          -2.174739D-01
6.839140D-01          -2.465135D-01
1.467570D-01           2.731435D-01
7.058300D-02           5.748321D-01
3.144900D-02           3.012713D-01
S   20   1.00
4.316265D+06          -4.009367D-07
6.463424D+05          -3.189255D-06
1.470897D+05          -1.623079D-05
4.166152D+04          -7.157920D-05
1.359077D+04          -2.463958D-04
4.905750D+03          -8.544907D-04
1.912746D+03          -2.307593D-03
7.926043D+02          -6.728292D-03
3.448065D+02          -1.366165D-02
1.558999D+02          -3.062240D-02
7.223091D+01          -2.631137D-02
3.272506D+01          -9.760183D-03
1.566762D+01           1.801906D-01
7.503483D+00           1.529634D-01
3.312223D+00           5.505413D-02
1.558471D+00          -9.551364D-01
6.839140D-01           2.586813D-01
1.467570D-01           1.834049D+00
7.058300D-02          -9.333240D-01
3.144900D-02          -6.981605D-01
S   1   1.00
3.144900D-02           1.000000D+00
P   16   1.00
1.774569D+04           4.100000D-05
4.200721D+03           3.690000D-04
1.364429D+03           2.129000D-03
5.220806D+02           9.369000D-03
2.214595D+02           3.309700D-02
1.009096D+02           9.443100D-02
4.840115D+01           2.080770D-01
2.398536D+01           3.323330D-01
1.218250D+01           3.329870D-01
6.242298D+00           1.568430D-01
3.110944D+00           2.154900D-02
1.509958D+00          -2.095000D-03
7.108450D-01          -1.739000D-03
2.731900D-01          -3.000000D-04
1.042330D-01           2.900000D-05
3.829100D-02          -1.100000D-05
P   16   1.00
1.774569D+04          -1.500000D-05
4.200721D+03          -1.300000D-04
1.364429D+03          -7.510000D-04
5.220806D+02          -3.329000D-03
2.214595D+02          -1.191200D-02
1.009096D+02          -3.493300D-02
4.840115D+01          -7.998900D-02
2.398536D+01          -1.346360D-01
1.218250D+01          -1.385980D-01
6.242298D+00           3.027800D-02
3.110944D+00           3.332160D-01
1.509958D+00           4.561530D-01
7.108450D-01           2.850510D-01
2.731900D-01           4.614400D-02
1.042330D-01          -3.249000D-03
3.829100D-02           1.357000D-03
P   16   1.00
1.774569D+04           5.000000D-06
4.200721D+03           4.200000D-05
1.364429D+03           2.410000D-04
5.220806D+02           1.085000D-03
2.214595D+02           3.831000D-03
1.009096D+02           1.142300D-02
4.840115D+01           2.579200D-02
2.398536D+01           4.481800D-02
1.218250D+01           4.459800D-02
6.242298D+00          -1.117700D-02
3.110944D+00          -1.381340D-01
1.509958D+00          -1.882850D-01
7.108450D-01          -1.073990D-01
2.731900D-01           4.448630D-01
1.042330D-01           6.402390D-01
3.829100D-02           6.445700D-02
P   16   1.00
1.774569D+04           3.000000D-06
4.200721D+03           2.900000D-05
1.364429D+03           1.650000D-04
5.220806D+02           7.340000D-04
2.214595D+02           2.626000D-03
1.009096D+02           7.725000D-03
4.840115D+01           1.773300D-02
2.398536D+01           3.005500D-02
1.218250D+01           3.109400D-02
6.242298D+00          -1.004800D-02
3.110944D+00          -8.830600D-02
1.509958D+00          -1.298240D-01
7.108450D-01          -7.693700D-02
2.731900D-01           2.126610D-01
1.042330D-01           5.730610D-01
3.829100D-02           3.696510D-01
P   1   1.00
3.829100D-02           1.000000D+00
D   8   1.00
1.133440D+02           3.530000D-03
3.364140D+01           2.578400D-02
1.233100D+01           9.911900D-02
4.994780D+00           2.390730D-01
2.072800D+00           3.571990D-01
8.307530D-01           3.621880D-01
3.091780D-01           2.364610D-01
1.001300D-01           6.011800D-02
D   8   1.00
1.133440D+02          -3.890000D-03
3.364140D+01          -2.844200D-02
1.233100D+01          -1.124290D-01
4.994780D+00          -2.742570D-01
2.072800D+00          -3.155460D-01
8.307530D-01           5.710900D-02
3.091780D-01           5.636040D-01
1.001300D-01           3.846370D-01
D   1   1.00
1.001300D-01           1.000000D+00
F   2   1.00
3.224300D+00           4.222490D-01
7.758000D-01           7.714680D-01
****
$end


--------------------------------------------------------------
 Adding empirical dispersion correction 
 ----------------------------------------------------------------
 Doing -D3(BJ) with
 s6  =   1.00000
 s8  =   1.98890
 a1  =   0.39810
 a2  =   4.42110
 -D3 energy without 3body term =     -0.1659396029 hartrees
 ----------------------------------------------------------------
             Standard Nuclear Orientation (Angstroms)
    I     Atom           X                Y                Z
 ----------------------------------------------------------------
    1      N      -2.4975600000     2.6088570000    -0.7487940000
    2      C      -4.4232520000    -2.3585430000    -0.1703010000
    3      H      -4.9664470000    -2.9405750000     0.5902580000
    4      N      -2.9918200000    -2.3855470000     0.1543420000
    5      H      -2.4562330000    -2.8609470000    -0.5705620000
    6      C      -4.6037490000    -3.0995860000    -1.5291730000
    7      O      -5.8016180000    -3.1992180000    -1.9661050000
    8      C      -2.4263810000    -1.9710040000     1.3105610000
    9      O      -3.0887730000    -1.3818410000     2.2195100000
   10      C      -2.0431190000     3.6144800000     0.0014300000
   11      C      -2.7868550000     4.9172460000     0.1052070000
   12      H      -2.8799780000     5.4089350000    -0.8692440000
   13      H      -3.7946590000     4.7784850000     0.5103640000
   14      H      -2.2303930000     5.5743290000     0.7741780000
   15      C      -0.9577680000    -2.3264210000     1.5089550000
   16      H      -0.5909880000    -2.9766990000     0.7112200000
   17      H      -0.9067660000    -2.8883020000     2.4494660000
   18      C       0.0356080000    -1.1356240000     1.6217410000
   19      C      -0.3938260000    -0.1488060000     2.7452010000
   20      C       1.4549300000    -1.6660450000     2.0182870000
   21      H       1.3536610000    -2.3725150000     2.8491720000
   22      H       2.0421550000    -0.8168890000     2.3825460000
   23      C       2.1939200000    -2.3394890000     0.8729720000
   24      O       1.7526500000    -3.3782780000     0.2934050000
   25      N       3.3649140000    -1.7584430000     0.5287760000
   26      H       3.7502600000    -0.9763000000     1.0528450000
   27      C       5.6452940000    -1.5096280000    -0.2931120000
   28      O       6.6100450000    -1.8981020000    -1.0333580000
   29      N       2.4007850000     2.0889700000    -1.0222420000
   30      C       2.7347040000     2.2636510000     0.2550130000
   31      C       4.1520440000     2.5267180000     0.6692690000
   32      H       4.1392810000     3.0529730000     1.6258790000
   33      H       4.6991930000     1.5823530000     0.7968880000
   34      H       4.6928040000     3.1342930000    -0.0615870000
   35      C       3.2933570000     1.9460380000    -2.1867260000
   36      H       2.6444340000     2.0713980000    -3.0560120000
   37      H       4.0169940000     2.7683000000    -2.1836200000
   38      C       4.0193920000     0.5869730000    -2.2114710000
   39      H       4.6660530000     0.5651560000    -3.1001350000
   40      H       4.6791830000     0.5332620000    -1.3405010000
   41      C       3.0606450000    -0.6198230000    -2.2173590000
   42      H       2.2844140000    -0.4654720000    -1.4596550000
   43      H       2.5431500000    -0.6591880000    -3.1873600000
   44      C       3.7231460000    -1.9887570000    -1.9612080000
   45      H       2.9755350000    -2.7675070000    -2.1532010000
   46      H       4.5583110000    -2.1600330000    -2.6522770000
   47      C       4.2748030000    -2.2107760000    -0.5212570000
   48      H       4.4465500000    -3.2894630000    -0.4065880000
   49      C      -4.7429590000     1.5033020000    -0.9207280000
   50      H      -4.8162660000     1.6963000000     0.1589310000
   51      H      -5.7352160000     1.7152350000    -1.3430550000
   52      C      -3.7454250000     2.5173790000    -1.5190270000
   53      H      -4.1855710000     3.5164230000    -1.5516230000
   54      H      -3.4740500000     2.2350780000    -2.5425650000
   55      C      -4.3595720000     0.0267170000    -1.1633330000
   56      H      -3.2783280000    -0.0637860000    -1.0387820000
   57      H      -4.5924520000    -0.2451170000    -2.2034090000
   58      C      -5.0518850000    -0.9444230000    -0.1953820000
   59      H      -4.9970230000    -0.5395630000     0.8210600000
   60      H      -6.1107080000    -1.0703560000    -0.4521150000
   61      O      -3.5370010000    -3.5543540000    -2.0939230000
   62      O       5.6949400000    -0.5912770000     0.6175580000
   63      O       0.1252370000    -0.4158220000     0.3949850000
   64      Fe     -0.0681860000     1.4869600000     0.3850730000
   65      O      -0.6087150000     1.0857690000     2.3262360000
   66      O      -1.7088920000     1.4407770000    -0.7483740000
   67      O      -0.9243260000     3.4352650000     0.6383320000
   68      O       1.0294480000     1.8530080000    -1.2747030000
   69      O      -0.4507160000    -0.5194540000     3.9458500000
   70      O       1.7881450000     2.1761360000     1.1475450000
 ----------------------------------------------------------------
 Nuclear Repulsion Energy =        5997.82756849 hartrees
 There are      164 alpha and      159 beta electrons
 Requested basis set is non-standard
 There are 339 shells and 739 basis functions

 Total QAlloc Memory Limit   8000 MB
 Mega-Array Size       188 MB
 MEM_STATIC part       192 MB

 -----------------------------------------------------------------------
                STARTING GEOMETRY OPTIMIZER USING LIBOPT3
                by Peter F. McLaughlin, Yu Zhang, Evgeny Epifanovsky
 -----------------------------------------------------------------------

              Initial Energy and Gradient Calculation
   -- Checking Topology for Ill-Behaving Coordinates --

 -------------------------------------------
   Coordinate       |  Removed | Additions 
 -------------------------------------------
	Bonds                     0          0
	Angles                    0          0
	Torsions                  0          0
	Co-Linear Type5s          0          0
	Co-Linear Type6s          0          0
 -------------------------------------------
     Done Checking Topology
 Adding empirical dispersion correction 
 ----------------------------------------------------------------
 Doing -D3(BJ) with
 s6  =   1.00000
 s8  =   1.98890
 a1  =   0.39810
 a2  =   4.42110
 -D3 energy without 3body term =     -0.1659396029 hartrees
 ----------------------------------------------------------------
             Standard Nuclear Orientation (Angstroms)
    I     Atom           X                Y                Z
 ----------------------------------------------------------------
    1      N      -2.4975600000     2.6088570000    -0.7487940000
    2      C      -4.4232520000    -2.3585430000    -0.1703010000
    3      H      -4.9664470000    -2.9405750000     0.5902580000
    4      N      -2.9918200000    -2.3855470000     0.1543420000
    5      H      -2.4562330000    -2.8609470000    -0.5705620000
    6      C      -4.6037490000    -3.0995860000    -1.5291730000
    7      O      -5.8016180000    -3.1992180000    -1.9661050000
    8      C      -2.4263810000    -1.9710040000     1.3105610000
    9      O      -3.0887730000    -1.3818410000     2.2195100000
   10      C      -2.0431190000     3.6144800000     0.0014300000
   11      C      -2.7868550000     4.9172460000     0.1052070000
   12      H      -2.8799780000     5.4089350000    -0.8692440000
   13      H      -3.7946590000     4.7784850000     0.5103640000
   14      H      -2.2303930000     5.5743290000     0.7741780000
   15      C      -0.9577680000    -2.3264210000     1.5089550000
   16      H      -0.5909880000    -2.9766990000     0.7112200000
   17      H      -0.9067660000    -2.8883020000     2.4494660000
   18      C       0.0356080000    -1.1356240000     1.6217410000
   19      C      -0.3938260000    -0.1488060000     2.7452010000
   20      C       1.4549300000    -1.6660450000     2.0182870000
   21      H       1.3536610000    -2.3725150000     2.8491720000
   22      H       2.0421550000    -0.8168890000     2.3825460000
   23      C       2.1939200000    -2.3394890000     0.8729720000
   24      O       1.7526500000    -3.3782780000     0.2934050000
   25      N       3.3649140000    -1.7584430000     0.5287760000
   26      H       3.7502600000    -0.9763000000     1.0528450000
   27      C       5.6452940000    -1.5096280000    -0.2931120000
   28      O       6.6100450000    -1.8981020000    -1.0333580000
   29      N       2.4007850000     2.0889700000    -1.0222420000
   30      C       2.7347040000     2.2636510000     0.2550130000
   31      C       4.1520440000     2.5267180000     0.6692690000
   32      H       4.1392810000     3.0529730000     1.6258790000
   33      H       4.6991930000     1.5823530000     0.7968880000
   34      H       4.6928040000     3.1342930000    -0.0615870000
   35      C       3.2933570000     1.9460380000    -2.1867260000
   36      H       2.6444340000     2.0713980000    -3.0560120000
   37      H       4.0169940000     2.7683000000    -2.1836200000
   38      C       4.0193920000     0.5869730000    -2.2114710000
   39      H       4.6660530000     0.5651560000    -3.1001350000
   40      H       4.6791830000     0.5332620000    -1.3405010000
   41      C       3.0606450000    -0.6198230000    -2.2173590000
   42      H       2.2844140000    -0.4654720000    -1.4596550000
   43      H       2.5431500000    -0.6591880000    -3.1873600000
   44      C       3.7231460000    -1.9887570000    -1.9612080000
   45      H       2.9755350000    -2.7675070000    -2.1532010000
   46      H       4.5583110000    -2.1600330000    -2.6522770000
   47      C       4.2748030000    -2.2107760000    -0.5212570000
   48      H       4.4465500000    -3.2894630000    -0.4065880000
   49      C      -4.7429590000     1.5033020000    -0.9207280000
   50      H      -4.8162660000     1.6963000000     0.1589310000
   51      H      -5.7352160000     1.7152350000    -1.3430550000
   52      C      -3.7454250000     2.5173790000    -1.5190270000
   53      H      -4.1855710000     3.5164230000    -1.5516230000
   54      H      -3.4740500000     2.2350780000    -2.5425650000
   55      C      -4.3595720000     0.0267170000    -1.1633330000
   56      H      -3.2783280000    -0.0637860000    -1.0387820000
   57      H      -4.5924520000    -0.2451170000    -2.2034090000
   58      C      -5.0518850000    -0.9444230000    -0.1953820000
   59      H      -4.9970230000    -0.5395630000     0.8210600000
   60      H      -6.1107080000    -1.0703560000    -0.4521150000
   61      O      -3.5370010000    -3.5543540000    -2.0939230000
   62      O       5.6949400000    -0.5912770000     0.6175580000
   63      O       0.1252370000    -0.4158220000     0.3949850000
   64      Fe     -0.0681860000     1.4869600000     0.3850730000
   65      O      -0.6087150000     1.0857690000     2.3262360000
   66      O      -1.7088920000     1.4407770000    -0.7483740000
   67      O      -0.9243260000     3.4352650000     0.6383320000
   68      O       1.0294480000     1.8530080000    -1.2747030000
   69      O      -0.4507160000    -0.5194540000     3.9458500000
   70      O       1.7881450000     2.1761360000     1.1475450000
 ----------------------------------------------------------------
 Nuclear Repulsion Energy =        5997.82756849 hartrees
 There are      164 alpha and      159 beta electrons
 Using C-PCM dielectric factor f(eps) = (eps-1)/eps = 0.987243
No default van der Waals radius is available for Z = 26
	Found R = 2.4400 A in the $van_der_waals section
 Discretize the solute cavity surface with Lebedev spheres
	Using 110 Lebedev grid points for each H atom
	Using 194 Lebedev grid points for other atoms
	Atomic van der Waals radii (Bondi set) will be scaled by 1.20
 Using smooth SwiG surface discretization
 Remove points where switching function is < 1.0e-08
 Keep 4191 surface tesserae and discard 6869 interior tesserae
 Molecular Surface Area = 538.457 Angst**2

 Requested basis set is non-standard
 There are 339 shells and 739 basis functions
 A cutoff of  1.0D-12 yielded  44590 shell pairs
 There are    193996 function pairs (    215192 Cartesian)
 Smallest overlap matrix eigenvalue = 3.18E-04

 Scale SEOQF with 1.000000e-02/1.000000e-02/1.000000e-01

 Standard Electronic Orientation quadrupole field applied
 Nucleus-field energy     =    -0.0000000516 hartrees
 ================ Generating on-the-fly SAD Guess ================
 Attempting to make child job directory: /data/scratch/C_FeABO_ccL_3sextet_SfS_b3lypD3bj_ccpVDZ_pcmH2O_opt20230404192638//Frg1/
 Attempting to make child job directory: /data/scratch/C_FeABO_ccL_3sextet_SfS_b3lypD3bj_ccpVDZ_pcmH2O_opt20230404192638//Frg2/
 Attempting to make child job directory: /data/scratch/C_FeABO_ccL_3sextet_SfS_b3lypD3bj_ccpVDZ_pcmH2O_opt20230404192638//Frg3/
 Attempting to make child job directory: /data/scratch/C_FeABO_ccL_3sextet_SfS_b3lypD3bj_ccpVDZ_pcmH2O_opt20230404192638//Frg4/
 Attempting to make child job directory: /data/scratch/C_FeABO_ccL_3sextet_SfS_b3lypD3bj_ccpVDZ_pcmH2O_opt20230404192638//Frg5/
 Creating input file /data/scratch/C_FeABO_ccL_3sextet_SfS_b3lypD3bj_ccpVDZ_pcmH2O_opt20230404192638/Frg1.input
 using default PutDataFrgm: nothing
 calling putenv with: QCSCRATCH=/data/scratch/C_FeABO_ccL_3sextet_SfS_b3lypD3bj_ccpVDZ_pcmH2O_opt20230404192638/ 
 Spawning Job For Fragment 0
 Done Job For Fragment 0
 calling putenv with: QCSCRATCH=/data/scratch 
 calling putenv with: QCTHREADS=20 
 Creating input file /data/scratch/C_FeABO_ccL_3sextet_SfS_b3lypD3bj_ccpVDZ_pcmH2O_opt20230404192638/Frg2.input
 using default PutDataFrgm: nothing
 calling putenv with: QCSCRATCH=/data/scratch/C_FeABO_ccL_3sextet_SfS_b3lypD3bj_ccpVDZ_pcmH2O_opt20230404192638/ 
 Spawning Job For Fragment 1
 Done Job For Fragment 1
 calling putenv with: QCSCRATCH=/data/scratch 
 calling putenv with: QCTHREADS=20 
 Creating input file /data/scratch/C_FeABO_ccL_3sextet_SfS_b3lypD3bj_ccpVDZ_pcmH2O_opt20230404192638/Frg3.input
 using default PutDataFrgm: nothing
 calling putenv with: QCSCRATCH=/data/scratch/C_FeABO_ccL_3sextet_SfS_b3lypD3bj_ccpVDZ_pcmH2O_opt20230404192638/ 
 Spawning Job For Fragment 2
 Done Job For Fragment 2
 calling putenv with: QCSCRATCH=/data/scratch 
 calling putenv with: QCTHREADS=20 
 Creating input file /data/scratch/C_FeABO_ccL_3sextet_SfS_b3lypD3bj_ccpVDZ_pcmH2O_opt20230404192638/Frg4.input
 using default PutDataFrgm: nothing
 calling putenv with: QCSCRATCH=/data/scratch/C_FeABO_ccL_3sextet_SfS_b3lypD3bj_ccpVDZ_pcmH2O_opt20230404192638/ 
 Spawning Job For Fragment 3
 Done Job For Fragment 3
 calling putenv with: QCSCRATCH=/data/scratch 
 calling putenv with: QCTHREADS=20 
 Creating input file /data/scratch/C_FeABO_ccL_3sextet_SfS_b3lypD3bj_ccpVDZ_pcmH2O_opt20230404192638/Frg5.input
 using default PutDataFrgm: nothing
 calling putenv with: QCSCRATCH=/data/scratch/C_FeABO_ccL_3sextet_SfS_b3lypD3bj_ccpVDZ_pcmH2O_opt20230404192638/ 
 Spawning Job For Fragment 4
 Done Job For Fragment 4
 calling putenv with: QCSCRATCH=/data/scratch 
 calling putenv with: QCTHREADS=20 
 Time for running child jobs:  CPU 0.02 s  wall 59.15 s
 ============= Method Specific SAD Guess Constructed =============
 Guess from on-the-fly superposition of atomic densities
 Warning: Energy on first SCF cycle will be non-variational

 -----------------------------------------------------------------------
  General SCF calculation program by
  Eric Jon Sundstrom, Paul Horn, Yuezhi Mao, Dmitri Zuev, Alec White,
  David Stuck, Shaama M.S., Shane Yost, Joonho Lee, David Small,
  Daniel Levine, Susi Lehtola, Hugh Burton, Evgeny Epifanovsky,
  Bang C. Huynh
 -----------------------------------------------------------------------
 Exchange:     0.2000 Hartree-Fock + 0.0800 Slater + 0.7200 B88
 Correlation:  0.1900 VWN1RPA + 0.8100 LYP
 Using SG-1 standard quadrature grid
 Dispersion:   Grimme D3
 using 20 threads for integral computing
 -------------------------------------------------------
 OpenMP Integral computing Module                
 Release: version 1.0, May 2013, Q-Chem Inc. Pittsburgh 
 -------------------------------------------------------
 C-PCM solvent model [f = (eps-1)/eps], solve by matrix inversion
 A unrestricted SCF calculation will be
 performed using DIIS
 SCF converges when DIIS error is below 1.0e-08
 ---------------------------------------
  Cycle       Energy         DIIS error
 ---------------------------------------
    1   -3331.4810563696      1.56e-02  
    2   -3316.7719289306      2.22e-03  
    3   -3314.4374178513      4.29e-03  
    4   -3317.5247037014      1.58e-03  
    5   -3317.9747851070      2.88e-04  
    6   -3317.9744376092      3.18e-04  
    7   -3317.9959301475      8.17e-05  
    8   -3317.9974807727      3.56e-05  
    9   -3317.9978225747      1.73e-05  
   10   -3317.9979120073      7.78e-06  
   11   -3317.9979318072      3.80e-06  
   12   -3317.9979372414      2.08e-06  
   13   -3317.9979391063      8.08e-07  
   14   -3317.9979395021      4.89e-07  
   15   -3317.9979396322      2.45e-07  
   16   -3317.9979396545      1.41e-07  
   17   -3317.9979396609      5.75e-08  
   18   -3317.9979396620      2.70e-08  
   19   -3317.9979396626      1.47e-08  
   20   -3317.9979396624      4.87e-09  Convergence criterion met
 ---------------------------------------
 SCF time:   CPU 28847.55s  wall 1998.00s 
<S^2> =          8.758384274

************** Final PCM Free Energy Summary **************
 G_electrostatic  =      -0.53041874 hartree =    -332.84278357 kcal/mol
 G_cavitation     =       0.00000000 hartree =       0.00000000 kcal/mol
 G_dispersion     =       0.00000000 hartree =       0.00000000 kcal/mol
 G_repulsion      =       0.00000000 hartree =       0.00000000 kcal/mol
 --------------------------------------------------
 Non-electrostatic Free Energy =       0.00000000 hartree =       0.00000000 kcal/mol
 Total                         =      -0.53041874 hartree =    -332.84278357 kcal/mol
 --------------------------------------------------
 SCF Energy (H0 + V/2)                       =   -3317.99793966 
 Solute Internal Energy (H0)                 =   -3317.46752092 
 Total Free Energy (H0 + V/2 + non-elec)     =   -3317.99793966 hartree
                                             = -2082075.13189663 kcal/mol
***********************************************************

 SCF   energy in the final basis set =    -3317.9979396624
 Total energy in the final basis set =    -3317.9979396624
 
 --------------------------------------------------------------
 
                    Orbital Energies (a.u.)
 --------------------------------------------------------------
 
 Alpha MOs
 -- Occupied --
******** -30.1188 -25.9725 -25.9705 -25.9687 -19.1226 -19.1207 -19.1199
-19.1184 -19.0999 -19.0893 -19.0861 -19.0825 -19.0796 -19.0666 -19.0616
-19.0604 -19.0556 -14.4035 -14.4010 -14.3307 -14.3289 -10.2853 -10.2822
-10.2711 -10.2685 -10.2682 -10.2547 -10.2507 -10.2260 -10.2213 -10.2188
-10.2023 -10.2005 -10.1904 -10.1844 -10.1778 -10.1758 -10.1737 -10.1710
-10.1697 -10.1663 -10.1639 -10.1603  -3.6007  -2.3782  -2.3741  -2.3706
 -1.0577  -1.0526  -1.0182  -1.0017  -0.9980  -0.9896  -0.9866  -0.9856
 -0.9825  -0.9450  -0.9271  -0.9099  -0.9059  -0.8929  -0.8886  -0.8482
 -0.8440  -0.7861  -0.7844  -0.7629  -0.7502  -0.7417  -0.7249  -0.7191
 -0.7060  -0.6836  -0.6718  -0.6351  -0.6243  -0.6038  -0.5825  -0.5793
 -0.5479  -0.5450  -0.5413  -0.5296  -0.5199  -0.5119  -0.5044  -0.4981
 -0.4952  -0.4896  -0.4844  -0.4749  -0.4670  -0.4619  -0.4583  -0.4557
 -0.4538  -0.4488  -0.4383  -0.4370  -0.4358  -0.4286  -0.4272  -0.4249
 -0.4212  -0.4177  -0.4158  -0.4087  -0.4074  -0.4043  -0.3997  -0.3975
 -0.3964  -0.3943  -0.3926  -0.3918  -0.3874  -0.3859  -0.3815  -0.3789
 -0.3769  -0.3726  -0.3688  -0.3659  -0.3646  -0.3621  -0.3592  -0.3580
 -0.3545  -0.3509  -0.3484  -0.3452  -0.3437  -0.3340  -0.3281  -0.3209
 -0.3204  -0.3181  -0.3169  -0.3112  -0.3065  -0.3041  -0.3018  -0.2981
 -0.2811  -0.2767  -0.2681  -0.2533  -0.2445  -0.2416  -0.2391  -0.2360
 -0.2299  -0.2272  -0.2255  -0.2225  -0.2211  -0.2206  -0.2178  -0.2097
 -0.2075  -0.2065  -0.2040  -0.1972
 -- Virtual --
  0.0154   0.0174   0.0247   0.0293   0.0375   0.0549   0.0577   0.0632
  0.0640   0.0679   0.0758   0.0832   0.0909   0.0939   0.0991   0.1052
  0.1074   0.1128   0.1132   0.1177   0.1202   0.1224   0.1296   0.1339
  0.1377   0.1390   0.1435   0.1478   0.1554   0.1596   0.1617   0.1651
  0.1671   0.1682   0.1711   0.1784   0.1815   0.1860   0.1875   0.1909
  0.1938   0.1992   0.2033   0.2067   0.2078   0.2154   0.2212   0.2252
  0.2293   0.2340   0.2414   0.2435   0.2506   0.2528   0.2546   0.2593
  0.2638   0.2657   0.2674   0.2694   0.2758   0.2874   0.2883   0.2904
  0.2962   0.3043   0.3153   0.3231   0.3264   0.3322   0.3332   0.3510
  0.3564   0.3662   0.3697   0.3764   0.3821   0.3853   0.3913   0.4011
  0.4013   0.4124   0.4164   0.4233   0.4301   0.4312   0.4396   0.4445
  0.4457   0.4498   0.4595   0.4646   0.4698   0.4737   0.4797   0.4822
  0.4877   0.4928   0.4936   0.5001   0.5085   0.5142   0.5191   0.5259
  0.5287   0.5357   0.5373   0.5403   0.5469   0.5474   0.5520   0.5555
  0.5568   0.5587   0.5664   0.5703   0.5742   0.5827   0.5835   0.5891
  0.5908   0.5938   0.6012   0.6042   0.6076   0.6094   0.6153   0.6184
  0.6197   0.6224   0.6319   0.6340   0.6378   0.6405   0.6412   0.6416
  0.6438   0.6514   0.6569   0.6586   0.6604   0.6632   0.6654   0.6661
  0.6672   0.6742   0.6763   0.6778   0.6781   0.6831   0.6875   0.6907
  0.6923   0.6974   0.7004   0.7045   0.7061   0.7100   0.7133   0.7180
  0.7221   0.7260   0.7274   0.7318   0.7396   0.7417   0.7455   0.7539
  0.7575   0.7605   0.7704   0.7738   0.7784   0.7817   0.7908   0.7919
  0.7988   0.8030   0.8036   0.8106   0.8120   0.8226   0.8285   0.8435
  0.8483   0.8561   0.8620   0.8728   0.8736   0.8867   0.8892   0.8982
  0.9034   0.9093   0.9136   0.9202   0.9253   0.9304   0.9448   0.9517
  0.9582   0.9698   0.9748   0.9807   0.9925   0.9967   1.0137   1.0231
  1.0253   1.0316   1.0371   1.0439   1.0490   1.0522   1.0622   1.0662
  1.0729   1.0824   1.0866   1.0912   1.0968   1.1020   1.1074   1.1098
  1.1155   1.1235   1.1283   1.1368   1.1411   1.1430   1.1479   1.1533
  1.1589   1.1615   1.1700   1.1730   1.1751   1.1827   1.1878   1.1887
  1.1930   1.1970   1.2057   1.2073   1.2216   1.2227   1.2279   1.2326
  1.2369   1.2434   1.2499   1.2524   1.2588   1.2628   1.2688   1.2719
  1.2810   1.2861   1.2893   1.2920   1.2973   1.3062   1.3078   1.3189
  1.3204   1.3264   1.3356   1.3361   1.3446   1.3539   1.3597   1.3685
  1.3703   1.3778   1.3822   1.3935   1.3956   1.3989   1.4061   1.4082
  1.4173   1.4240   1.4296   1.4315   1.4348   1.4406   1.4470   1.4528
  1.4675   1.4724   1.4825   1.4859   1.4997   1.5063   1.5170   1.5221
  1.5272   1.5297   1.5368   1.5418   1.5508   1.5564   1.5573   1.5697
  1.5729   1.5788   1.5816   1.5836   1.5864   1.5947   1.5990   1.6103
  1.6124   1.6187   1.6232   1.6268   1.6291   1.6297   1.6331   1.6365
  1.6438   1.6485   1.6504   1.6527   1.6589   1.6683   1.6693   1.6747
  1.6760   1.6804   1.6838   1.6883   1.6916   1.6966   1.6971   1.7012
  1.7051   1.7107   1.7130   1.7182   1.7216   1.7235   1.7305   1.7324
  1.7387   1.7437   1.7462   1.7474   1.7530   1.7566   1.7584   1.7616
  1.7648   1.7764   1.7781   1.7836   1.7880   1.7899   1.7988   1.8030
  1.8038   1.8079   1.8146   1.8148   1.8190   1.8251   1.8282   1.8302
  1.8308   1.8404   1.8447   1.8521   1.8542   1.8569   1.8622   1.8700
  1.8729   1.8820   1.8858   1.8907   1.8949   1.9009   1.9030   1.9078
  1.9233   1.9301   1.9365   1.9425   1.9450   1.9548   1.9573   1.9693
  1.9726   1.9794   1.9829   1.9850   1.9926   2.0028   2.0077   2.0163
  2.0180   2.0284   2.0377   2.0416   2.0479   2.0499   2.0575   2.0618
  2.0737   2.0758   2.0809   2.0882   2.1058   2.1088   2.1120   2.1190
  2.1288   2.1344   2.1369   2.1450   2.1500   2.1618   2.1665   2.1671
  2.1748   2.1787   2.1859   2.1882   2.1953   2.1977   2.2075   2.2110
  2.2205   2.2228   2.2335   2.2388   2.2467   2.2592   2.2618   2.2671
  2.2768   2.2838   2.2884   2.2949   2.3019   2.3050   2.3113   2.3219
  2.3307   2.3316   2.3372   2.3483   2.3524   2.3626   2.3701   2.3716
  2.3878   2.3918   2.3953   2.4056   2.4099   2.4184   2.4316   2.4383
  2.4478   2.4596   2.4704   2.4738   2.4796   2.4890   2.4932   2.5001
  2.5090   2.5111   2.5173   2.5207   2.5233   2.5377   2.5458   2.5595
  2.5647   2.5717   2.5803   2.5853   2.5873   2.5928   2.5974   2.6098
  2.6362   2.6417   2.6546   2.6709   2.6745   2.6785   2.6834   2.6912
  2.6932   2.7003   2.7035   2.7090   2.7093   2.7114   2.7208   2.7255
  2.7301   2.7329   2.7418   2.7443   2.7489   2.7530   2.7582   2.7635
  2.7685   2.7717   2.7755   2.7794   2.7817   2.7900   2.8023   2.8115
  2.8155   2.8499   2.8837   2.8908   2.9039   2.9053   2.9101   2.9117
  2.9525   2.9538   2.9740   2.9886   2.9922   3.0024   3.0290   3.0350
  3.0473   3.0545   3.0611   3.0992   3.1006   3.1124   3.1140   3.1205
  3.1662   3.1670   3.1736   3.1777   3.2042   3.2082   3.2089   3.2194
  3.3569   3.3606   3.3642   3.3673   3.3775   3.4006   3.4090   3.4104
  3.4258   3.4442   3.4541   3.4638   3.4874   3.4907   3.4936   3.5078
  3.5280   3.5465   3.5527   3.5954   3.6115   3.7009   3.7315
 
 Beta MOs
 -- Occupied --
******** -30.0259 -25.8942 -25.8932 -25.8921 -19.1181 -19.1175 -19.1171
-19.1139 -19.0966 -19.0893 -19.0861 -19.0820 -19.0727 -19.0666 -19.0616
-19.0604 -19.0556 -14.4033 -14.4009 -14.3307 -14.3289 -10.2854 -10.2823
-10.2711 -10.2685 -10.2682 -10.2547 -10.2507 -10.2260 -10.2212 -10.2187
-10.2023 -10.2005 -10.1904 -10.1843 -10.1778 -10.1756 -10.1737 -10.1709
-10.1697 -10.1663 -10.1639 -10.1602  -3.3844  -2.1482  -2.1467  -2.1447
 -1.0531  -1.0483  -1.0147  -1.0016  -0.9980  -0.9896  -0.9855  -0.9805
 -0.9764  -0.9366  -0.9180  -0.9099  -0.9059  -0.8929  -0.8886  -0.8430
 -0.8390  -0.7857  -0.7840  -0.7608  -0.7498  -0.7406  -0.7239  -0.7180
 -0.7055  -0.6831  -0.6715  -0.6345  -0.6238  -0.6024  -0.5819  -0.5785
 -0.5475  -0.5443  -0.5371  -0.5249  -0.5176  -0.5100  -0.5004  -0.4913
 -0.4876  -0.4857  -0.4811  -0.4678  -0.4643  -0.4598  -0.4568  -0.4538
 -0.4525  -0.4447  -0.4375  -0.4350  -0.4322  -0.4275  -0.4223  -0.4207
 -0.4155  -0.4127  -0.4062  -0.4035  -0.3993  -0.3986  -0.3937  -0.3917
 -0.3897  -0.3877  -0.3850  -0.3802  -0.3777  -0.3734  -0.3719  -0.3702
 -0.3645  -0.3626  -0.3609  -0.3567  -0.3532  -0.3516  -0.3452  -0.3436
 -0.3341  -0.3327  -0.3244  -0.3207  -0.3189  -0.3173  -0.3101  -0.3070
 -0.3038  -0.3005  -0.2953  -0.2893  -0.2785  -0.2734  -0.2678  -0.2616
 -0.2546  -0.2417  -0.2404  -0.2375  -0.2308  -0.2275  -0.2257  -0.2216
 -0.2210  -0.2181  -0.2178  -0.2096  -0.2073  -0.2060  -0.1957
 -- Virtual --
 -0.0637  -0.0559  -0.0514  -0.0178  -0.0092   0.0191   0.0223   0.0251
  0.0301   0.0388   0.0561   0.0581   0.0638   0.0649   0.0684   0.0765
  0.0849   0.0912   0.0949   0.1003   0.1069   0.1090   0.1131   0.1143
  0.1183   0.1206   0.1229   0.1300   0.1341   0.1383   0.1395   0.1443
  0.1487   0.1558   0.1603   0.1627   0.1660   0.1676   0.1691   0.1719
  0.1795   0.1819   0.1863   0.1880   0.1915   0.1949   0.1997   0.2047
  0.2073   0.2098   0.2157   0.2248   0.2264   0.2303   0.2365   0.2424
  0.2447   0.2513   0.2547   0.2557   0.2619   0.2654   0.2680   0.2702
  0.2747   0.2776   0.2887   0.2908   0.2923   0.2985   0.3057   0.3171
  0.3286   0.3356   0.3365   0.3414   0.3579   0.3606   0.3700   0.3730
  0.3780   0.3860   0.3879   0.3941   0.4036   0.4039   0.4153   0.4190
  0.4241   0.4304   0.4331   0.4406   0.4453   0.4470   0.4502   0.4607
  0.4665   0.4712   0.4763   0.4808   0.4834   0.4889   0.4938   0.4942
  0.5016   0.5096   0.5161   0.5201   0.5270   0.5295   0.5363   0.5379
  0.5416   0.5474   0.5484   0.5525   0.5569   0.5579   0.5591   0.5680
  0.5711   0.5752   0.5831   0.5842   0.5898   0.5911   0.5947   0.6018
  0.6052   0.6085   0.6107   0.6155   0.6190   0.6200   0.6237   0.6324
  0.6353   0.6381   0.6413   0.6419   0.6427   0.6450   0.6521   0.6577
  0.6589   0.6608   0.6643   0.6656   0.6667   0.6684   0.6753   0.6768
  0.6785   0.6786   0.6843   0.6886   0.6914   0.6929   0.6981   0.7008
  0.7059   0.7072   0.7114   0.7141   0.7186   0.7229   0.7270   0.7291
  0.7333   0.7404   0.7429   0.7480   0.7542   0.7598   0.7623   0.7745
  0.7774   0.7801   0.7838   0.7928   0.7951   0.8029   0.8051   0.8066
  0.8129   0.8174   0.8251   0.8338   0.8447   0.8556   0.8588   0.8646
  0.8775   0.8792   0.8881   0.8938   0.9009   0.9085   0.9120   0.9185
  0.9220   0.9277   0.9336   0.9471   0.9547   0.9615   0.9723   0.9768
  0.9875   0.9948   0.9990   1.0164   1.0261   1.0278   1.0336   1.0390
  1.0446   1.0506   1.0544   1.0635   1.0692   1.0767   1.0858   1.0907
  1.0933   1.0984   1.1036   1.1090   1.1115   1.1165   1.1262   1.1303
  1.1392   1.1416   1.1445   1.1500   1.1546   1.1597   1.1636   1.1717
  1.1756   1.1762   1.1855   1.1891   1.1913   1.1953   1.1975   1.2083
  1.2105   1.2232   1.2250   1.2293   1.2349   1.2387   1.2453   1.2527
  1.2573   1.2621   1.2699   1.2724   1.2738   1.2852   1.2893   1.2905
  1.2961   1.3004   1.3086   1.3126   1.3220   1.3244   1.3352   1.3384
  1.3415   1.3473   1.3593   1.3650   1.3718   1.3777   1.3805   1.3866
  1.3987   1.4033   1.4046   1.4085   1.4166   1.4223   1.4291   1.4345
  1.4362   1.4448   1.4502   1.4570   1.4634   1.4717   1.4759   1.4889
  1.4930   1.5017   1.5120   1.5248   1.5286   1.5331   1.5396   1.5452
  1.5464   1.5537   1.5578   1.5648   1.5711   1.5763   1.5839   1.5852
  1.5865   1.5957   1.6021   1.6047   1.6150   1.6173   1.6218   1.6257
  1.6295   1.6316   1.6333   1.6355   1.6419   1.6470   1.6505   1.6556
  1.6579   1.6630   1.6714   1.6733   1.6762   1.6795   1.6817   1.6871
  1.6895   1.6930   1.6983   1.6998   1.7032   1.7091   1.7129   1.7149
  1.7201   1.7242   1.7257   1.7315   1.7361   1.7410   1.7450   1.7468
  1.7509   1.7538   1.7574   1.7610   1.7645   1.7669   1.7779   1.7819
  1.7847   1.7899   1.7942   1.8010   1.8045   1.8054   1.8104   1.8154
  1.8177   1.8216   1.8258   1.8301   1.8328   1.8353   1.8417   1.8476
  1.8544   1.8565   1.8610   1.8659   1.8713   1.8746   1.8852   1.8875
  1.8926   1.8984   1.9039   1.9048   1.9088   1.9285   1.9316   1.9403
  1.9448   1.9504   1.9581   1.9587   1.9745   1.9750   1.9821   1.9851
  1.9890   1.9964   2.0049   2.0108   2.0185   2.0204   2.0351   2.0415
  2.0431   2.0496   2.0534   2.0600   2.0652   2.0758   2.0786   2.0846
  2.0900   2.1075   2.1119   2.1140   2.1207   2.1296   2.1355   2.1380
  2.1469   2.1515   2.1642   2.1683   2.1710   2.1763   2.1811   2.1864
  2.1889   2.1960   2.1983   2.2104   2.2156   2.2225   2.2243   2.2346
  2.2410   2.2487   2.2605   2.2634   2.2687   2.2787   2.2867   2.2940
  2.2961   2.3032   2.3064   2.3133   2.3247   2.3315   2.3369   2.3377
  2.3500   2.3538   2.3652   2.3710   2.3726   2.3917   2.3927   2.3974
  2.4089   2.4127   2.4192   2.4335   2.4398   2.4493   2.4606   2.4715
  2.4759   2.4823   2.4925   2.4944   2.5009   2.5107   2.5153   2.5188
  2.5237   2.5255   2.5389   2.5477   2.5619   2.5655   2.5738   2.5811
  2.5873   2.5886   2.5947   2.5997   2.6138   2.6381   2.6456   2.6563
  2.6756   2.6779   2.6794   2.6907   2.6975   2.7035   2.7074   2.7105
  2.7131   2.7133   2.7172   2.7239   2.7290   2.7343   2.7402   2.7436
  2.7492   2.7530   2.7594   2.7632   2.7685   2.7742   2.7770   2.7804
  2.7841   2.7855   2.7996   2.8042   2.8161   2.8234   2.8637   2.8938
  2.9025   2.9086   2.9119   2.9147   2.9183   2.9616   2.9885   2.9917
  2.9964   3.0135   3.0430   3.0514   3.0572   3.0649   3.0771   3.0989
  3.1000   3.1138   3.1161   3.1211   3.1666   3.1672   3.1856   3.2058
  3.2074   3.2085   3.2094   3.2813   3.3138   3.3638   3.3666   3.3696
  3.3763   3.3779   3.4059   3.4104   3.4365   3.4469   3.4533   3.4633
  3.4694   3.4909   3.4927   3.5125   3.5464   3.5526   3.5604   3.5975
  3.6085   3.6943   3.7117   3.7427
 --------------------------------------------------------------
 
          Ground-State Mulliken Net Atomic Charges

     Atom                 Charge (a.u.)    Spin (a.u.)
  --------------------------------------------------------
      1 N                    -0.043203       0.010104
      2 C                     0.006211       0.000010
      3 H                    -0.004642       0.000002
      4 N                    -0.099675      -0.000018
      5 H                     0.078301      -0.000020
      6 C                     0.109001      -0.000003
      7 O                    -0.467457       0.000008
      8 C                     0.141807       0.000050
      9 O                    -0.400732       0.000358
     10 C                     0.135038      -0.000000
     11 C                     0.031231       0.003096
     12 H                     0.069971      -0.000009
     13 H                     0.068629       0.000231
     14 H                     0.044902       0.000258
     15 C                     0.138033       0.004249
     16 H                    -0.006623       0.000198
     17 H                     0.009715       0.001237
     18 C                    -0.051530       0.005831
     19 C                     0.221928       0.004074
     20 C                     0.121217       0.006681
     21 H                     0.014892       0.001341
     22 H                     0.004684       0.000002
     23 C                     0.152820      -0.000075
     24 O                    -0.399105       0.000256
     25 N                    -0.095647      -0.000106
     26 H                     0.093521      -0.000061
     27 C                     0.122636       0.000003
     28 O                    -0.454760       0.000018
     29 N                    -0.043179       0.007386
     30 C                     0.134247       0.003158
     31 C                     0.016380       0.003237
     32 H                     0.043709       0.000142
     33 H                     0.069778       0.000140
     34 H                     0.051702       0.000599
     35 C                     0.143226       0.001321
     36 H                     0.028595       0.000308
     37 H                     0.037555       0.000848
     38 C                    -0.033911       0.000388
     39 H                     0.007076       0.000406
     40 H                     0.022026       0.000048
     41 C                    -0.041140      -0.000099
     42 H                     0.066710       0.001045
     43 H                    -0.004571      -0.000019
     44 C                     0.044233       0.000120
     45 H                    -0.010958      -0.000015
     46 H                    -0.014753      -0.000008
     47 C                     0.016080      -0.000006
     48 H                    -0.005549       0.000001
     49 C                    -0.004032       0.000038
     50 H                     0.011844       0.000001
     51 H                     0.013667      -0.000005
     52 C                     0.136774       0.001504
     53 H                     0.035632       0.001823
     54 H                     0.031787       0.000696
     55 C                    -0.030456       0.001261
     56 H                     0.033305       0.000354
     57 H                    -0.004881       0.000048
     58 C                     0.048963       0.000062
     59 H                    -0.012610      -0.000004
     60 H                    -0.017331       0.000099
     61 O                    -0.464552      -0.000001
     62 O                    -0.448962       0.000019
     63 O                    -0.506413       0.220359
     64 Fe                    0.580154       4.172108
     65 O                    -0.410384       0.091034
     66 O                    -0.442079       0.152386
     67 O                    -0.384486       0.070105
     68 O                    -0.445420       0.136546
     69 O                    -0.400262       0.017725
     70 O                    -0.388675       0.077126
  --------------------------------------------------------
  Sum of atomic charges =    -3.000000
  Sum of spin   charges =     5.000000

 -----------------------------------------------------------------
                    Cartesian Multipole Moments
 -----------------------------------------------------------------
    Charge (ESU x 10^10)
               -14.4096
    Dipole Moment (Debye)
         X      -0.1813      Y      23.2870      Z      -4.7212
       Tot      23.7615
    Quadrupole Moments (Debye-Ang)
        XX    -482.0706     XY     -39.4865     YY    -311.9636
        XZ     -15.2844     YZ     -44.0725     ZZ    -318.9276
    Octopole Moments (Debye-Ang^2)
       XXX    -432.4798    XXY     687.1980    XYY      88.5464
       YYY     347.6427    XXZ     210.5136    XYZ     107.1846
       YYZ      90.4415    XZZ     137.0561    YZZ      99.2580
       ZZZ    -131.1454
    Hexadecapole Moments (Debye-Ang^3)
      XXXX  -26157.7060   XXXY    -456.2924   XXYY   -5144.2532
      XYYY    -791.1933   YYYY   -7971.1688   XXXZ    -507.0088
      XXYZ   -1001.2579   XYYZ    -405.6774   YYYZ    -498.4578
      XXZZ   -4027.7986   XYZZ    -336.2817   YYZZ   -2115.3576
      XZZZ     -18.7835   YZZZ    -130.5883   ZZZZ   -4275.2985
 -----------------------------------------------------------------
 Calculating analytic gradient of the SCF energy
 Gradient of SCF Energy
            1           2           3           4           5           6
    1  -0.0315592  -0.0392787   0.0378766   0.0840287  -0.0546722  -0.0244416
    2   0.0826817  -0.0178884   0.0382157  -0.0177198   0.0430665  -0.0693374
    3   0.0092903   0.0458734  -0.0513021  -0.0149599   0.0652799  -0.1128415
            7           8           9          10          11          12
    1   0.1390626  -0.0838997   0.0857720   0.0038279   0.0003726   0.0037186
    2   0.0249412   0.0188396  -0.0535250  -0.0024061  -0.0073110  -0.0199827
    3   0.0611925   0.0732983  -0.1181794  -0.0002812  -0.0022369   0.0436139
           13          14          15          16          17          18
    1   0.0465074  -0.0278123   0.0055787  -0.0188309  -0.0052339   0.0006136
    2   0.0083785  -0.0334535  -0.0386552   0.0456086   0.0416621  -0.0368756
    3  -0.0186301  -0.0338550  -0.0049956   0.0549283  -0.0634534   0.0094816
           19          20          21          22          23          24
    1  -0.0253531   0.0314919   0.0055912  -0.0398522   0.0028096   0.0364085
    2   0.0081560   0.0090561   0.0484301  -0.0602261  -0.0965682   0.1310150
    3   0.1617934   0.0374949  -0.0562241  -0.0259676  -0.0428149   0.0578525
           25          26          27          28          29          30
    1  -0.0260755  -0.0281342   0.1143585  -0.1163241   0.0792394   0.0021490
    2   0.0488026  -0.0712867   0.0210249   0.0375410   0.0173974   0.0069746
    3   0.0560353  -0.0434702   0.0144733   0.0714980   0.0363755  -0.0061438
           31          32          33          34          35          36
    1  -0.0081374   0.0003089  -0.0271831  -0.0280538   0.0092642   0.0349856
    2  -0.0078576  -0.0314655   0.0516326  -0.0319645   0.0192436  -0.0063788
    3  -0.0041747  -0.0560433  -0.0068307   0.0396659  -0.0225585   0.0517719
           37          38          39          40          41          42
    1  -0.0380394   0.0228243  -0.0308321  -0.0352426  -0.0428746   0.0528919
    2  -0.0406542   0.0086783   0.0012649   0.0051889  -0.0079942  -0.0103103
    3   0.0002427   0.0003841   0.0465433  -0.0466188   0.0008069  -0.0486079
           43          44          45          46          47          48
    1   0.0284727  -0.0067041   0.0433554  -0.0421110   0.0037921  -0.0110706
    2   0.0030670  -0.0253826   0.0469908   0.0093743  -0.0561111   0.0711524
    3   0.0555075  -0.0338040   0.0158270   0.0411030  -0.0103512  -0.0050536
           49          50          51          52          53          54
    1  -0.0140302   0.0026659   0.0453886  -0.0059039   0.0231053  -0.0145443
    2   0.0101721  -0.0096815  -0.0085938   0.0112254  -0.0445136   0.0151339
    3   0.0111917  -0.0583289   0.0207951  -0.0225468   0.0026724   0.0563471
           55          56          57          58          59          60
    1   0.0242028  -0.0713107   0.0154331  -0.0247600   0.0024554   0.0593927
    2  -0.0065649   0.0044614   0.0141904   0.0064263  -0.0268420   0.0024385
    3  -0.0134609  -0.0118876   0.0601284   0.0157074  -0.0575985   0.0126528
           61          62          63          64          65          66
    1  -0.1026164  -0.0269064  -0.0056114  -0.0033864   0.0209245   0.0384390
    2   0.0604211  -0.0615903   0.0266694   0.0021854  -0.0806695  -0.0239329
    3   0.0753568  -0.0849957   0.0149728  -0.0161831  -0.0050608   0.0239312
           67          68          69          70
    1  -0.0505247  -0.0416850   0.0128135   0.0328735
    2  -0.0154688  -0.0145480   0.0437018  -0.0096504
    3  -0.0333795   0.0264376  -0.1872382  -0.0504482
 Max gradient component =       1.872E-01
 RMS gradient           =       4.589E-02
 Computing fast CPCM-SWIG gradient
 Updating gradient with PCM contributions...
 -- total gradient after adding PCM contribution --
---------------------------------------------------
  Atom         X              Y              Z     
---------------------------------------------------
   1      -0.014638       0.016631      -0.002293
   2      -0.005103      -0.002826       0.003509
   3       0.001416       0.001299      -0.001948
   4       0.002664      -0.006701      -0.006787
   5      -0.001127       0.001734       0.000999
   6       0.002492       0.012565       0.022354
   7      -0.028107      -0.003448      -0.011119
   8       0.017414      -0.012181      -0.017607
   9      -0.016750       0.014645       0.023766
  10      -0.022169       0.012136      -0.008534
  11      -0.001206       0.002670       0.000206
  12       0.000263      -0.000572       0.003827
  13       0.003484       0.001553      -0.001021
  14      -0.002669      -0.002236      -0.002741
  15      -0.000321      -0.005892       0.001523
  16      -0.001110       0.001897       0.002754
  17       0.000616       0.001124      -0.002714
  18       0.000413      -0.011631       0.012882
  19       0.003141      -0.011461      -0.016596
  20       0.003913      -0.002347       0.004219
  21       0.000205       0.002990      -0.001792
  22      -0.001787      -0.002649      -0.000031
  23       0.005526       0.021740       0.014322
  24      -0.011294      -0.026287      -0.013732
  25       0.006438       0.004957       0.005050
  26      -0.000627      -0.001586      -0.001387
  27      -0.023326      -0.011855      -0.002295
  28       0.024559      -0.009112      -0.017257
  29       0.022600       0.003528       0.000189
  30       0.023990       0.006113      -0.010700
  31       0.002086       0.000589       0.001614
  32       0.000649      -0.001824      -0.003788
  33      -0.000478       0.003499       0.000353
  34      -0.001268      -0.001574       0.003416
  35       0.001174       0.006359      -0.008115
  36       0.002594      -0.000238       0.002792
  37      -0.002248      -0.002370      -0.000676
  38       0.008091       0.000313      -0.000748
  39      -0.001957      -0.000045       0.002419
  40      -0.001588       0.000139      -0.003039
  41      -0.007132       0.000406      -0.001456
  42       0.001999      -0.001373      -0.002688
  43       0.001429      -0.000013       0.002299
  44       0.000954      -0.005504      -0.005480
  45       0.002296       0.002017       0.000199
  46      -0.002642       0.000617       0.001535
  47       0.001838      -0.006157      -0.000987
  48      -0.000303       0.003042      -0.000041
  49      -0.006620       0.003025       0.003263
  50      -0.000304      -0.000763      -0.003101
  51       0.002515      -0.000658       0.001350
  52      -0.002914       0.004192      -0.008320
  53       0.000914      -0.003125      -0.000562
  54      -0.001185       0.001185       0.003669
  55       0.004627      -0.001881      -0.005574
  56      -0.002849       0.000566      -0.000505
  57       0.000395       0.000918       0.002886
  58      -0.006188       0.001361       0.004034
  59      -0.000324      -0.001358      -0.002813
  60       0.002859       0.000670       0.000811
  61       0.025024      -0.011403      -0.014024
  62       0.002322       0.021141       0.020556
  63      -0.000979       0.015375      -0.010828
  64      -0.000217       0.000416       0.000009
  65      -0.002527       0.021039      -0.012667
  66       0.017302      -0.019959       0.002028
  67       0.024065      -0.006839       0.010972
  68      -0.027206      -0.003985      -0.000517
  69      -0.001078      -0.009304       0.029078
  70      -0.022026      -0.003297       0.015597
---------------------------------------------------
 Number of fixed atoms: 0
 Gradient time:  CPU 21237.04 s  wall 1131.83 s

 *****************************************************
             Starting BFGS Algorithm
 *****************************************************
            LIBOPT3 RUN PARAMETERS

  Geometry Optimization Coordinates :
	Delocalized Natural Internal Coordinates

  Step Length Selection Method :
	Eigenvector Following Algorithm

  Convergence Criteria :
	Max Gradient Component    	3.00000000e-04
	Max Displacement Component	1.20000000e-03
	Absolute Energy Difference	1.00000000e-06

  Initial Hessian :
	Approximate Hessian - Simple Internal Coordinate Scaled

  Type of Verification :
	Verify with final updated Hessian
 *****************************************************

	OPTIMIZATION CYCLE:	1

 Scaling Magnitude of Eigenvalues
 	Minimum: -25.00000000	 Maximum: 25.00000000
 204 Hessian Eigenvalues to form next step
   0.10000000   0.10000000   0.10000000   0.10000000   0.10000000
   0.10000000   0.10000000   0.10000000   0.10000000   0.10000000
   0.10000011   0.10000037   0.10000070   0.10000079   0.10000115
   0.10000212   0.10000335   0.10000406   0.10000697   0.10002175
   0.10002373   0.10003361   0.10005959   0.10009372   0.10009651
   0.10012664   0.10026004   0.10272078   0.10352623   0.10437746
   0.10475365   0.10531206   0.10682471   0.10874768   0.10983057
   0.11063536   0.11212245   0.11298166   0.11395318   0.11455048
   0.11898809   0.11971598   0.12009482   0.12044693   0.12115685
   0.12145301   0.12198583   0.12376808   0.12479020   0.12531909
   0.12620609   0.12632661   0.12662056   0.12681091   0.12716976
   0.12753723   0.12912937   0.13056696   0.13283807   0.13317424
   0.13431440   0.13633818   0.13673270   0.13686526   0.13820134
   0.13937407   0.14171705   0.14187815   0.14243368   0.14431134
   0.14441773   0.14527785   0.14972827   0.15135501   0.15177760
   0.15199275   0.15245032   0.15274941   0.15376331   0.15389177
   0.15493377   0.15550181   0.15775354   0.15795929   0.15798582
   0.15954764   0.16037606   0.16837191   0.17558957   0.17615205
   0.17655991   0.17662520   0.17767445   0.17789839   0.17829284
   0.17901754   0.17948303   0.18041569   0.18160904   0.18207671
   0.18293937   0.18377113   0.18729210   0.19162034   0.19630942
   0.19645657   0.19804667   0.19875280   0.19956273   0.19967961
   0.19972779   0.19978635   0.19980780   0.19992978   0.19997496
   0.19998385   0.19999099   0.19999764   0.20000000   0.20000000
   0.20000000   0.20000000   0.20000000   0.20000000   0.20000000
   0.20000000   0.20000000   0.20000000   0.20000000   0.20000000
   0.37831203   0.40716067   0.42079727   0.42369175   0.43656478
   0.43813236   0.46486461   0.47162454   0.48041146   0.48158018
   0.48288427   0.48937928   0.49884197   0.49930278   0.49997512
   0.50000000   0.50000000   0.50000000   0.50000000   0.50000000
   0.50000000   0.50000000   0.50000000   0.50000000   0.50000000
   0.50000000   0.50000000   0.50000000   0.50000000   0.50000000
   0.50000000   0.50000000   0.50000000   0.50000000   0.50000000
   0.50000000   0.50000000   0.50000000   0.50000000   0.50000000
   0.50000000   0.50000000   0.50000000   0.50000000   0.50000000
   0.50000000   0.50000000   0.50000000   0.50000000   0.50000000
   0.50000000   0.50000000   0.50000000   0.50000000   0.50000000
   0.50000000   0.50000000   0.50000000   0.50000000   0.50000000
   0.50000000   0.50000000   0.50000000   0.50000000   0.50000000
   0.50000000   0.50000000   0.50000000   0.50000000   0.50000000
   0.50000000   0.50000000   0.50000000   0.50000000

 Minimum Search taking a RFO step
 Searching for Lambda that minimizes along all modes
	Value of Lambda   -0.02610768
	Norm  of Stepsize  0.23946724
	RMS   of Stepsize  0.01676606

	Performing Iterative Coordinate Back-Transformation

	  Starting from Previous Position

	  iter:	0	rms: 5.3529536775e-02	maxdev: 1.6457591813e-01
	  iter:	1	rms: 4.0174725149e-04	maxdev: 1.8651484786e-03
	  iter:	2	rms: 8.0804547274e-08	maxdev: 4.5107908502e-07	 Success!

	Finished Iterative Coordinate Back-Transformation
 Adding empirical dispersion correction 
 ----------------------------------------------------------------
 Doing -D3(BJ) with
 s6  =   1.00000e+00
 s8  =   1.98890e+00
 a1  =   3.98100e-01
 a2  =   4.42110e+00
 -D3 energy without 3body term =     -1.6910723181e-01 hartrees
 ----------------------------------------------------------------
             Standard Nuclear Orientation (Angstroms)
    I     Atom           X                Y                Z
 ----------------------------------------------------------------
    1      N      -2.4577457586     2.5777388137    -0.7422296116
    2      C      -4.3984595403    -2.3411848108    -0.1721885258
    3      H      -4.9422418495    -2.9224203217     0.5925262138
    4      N      -2.9726880454    -2.3674261289     0.1473664677
    5      H      -2.4364225044    -2.8486510894    -0.5761884049
    6      C      -4.5864263759    -3.0769290635    -1.5288161554
    7      O      -5.7596892571    -3.1632316381    -1.9465058861
    8      C      -2.4135390519    -1.9525338195     1.2950394752
    9      O      -3.0599166479    -1.3700684863     2.1742012465
   10      C      -2.0093293699     3.5738100948     0.0094026962
   11      C      -2.7686632890     4.8669910484     0.1002210885
   12      H      -2.8567393199     5.3490756610    -0.8836297557
   13      H      -3.7820312765     4.7111140435     0.4954601150
   14      H      -2.2242730330     5.5358200871     0.7746610392
   15      C      -0.9514304759    -2.3156172451     1.4968320505
   16      H      -0.5819018600    -2.9744064717     0.7025091105
   17      H      -0.9071612787    -2.8719573488     2.4443274132
   18      C       0.0344257991    -1.1256189327     1.6027611956
   19      C      -0.3996136943    -0.1417928090     2.7219486697
   20      C       1.4512943161    -1.6343641884     2.0089179928
   21      H       1.3605608478    -2.3370801429     2.8485497140
   22      H       2.0315341924    -0.7719337160     2.3621779141
   23      C       2.1881958990    -2.3097996708     0.8692225180
   24      O       1.7729070984    -3.3330253262     0.3121913893
   25      N       3.3390850347    -1.7159613761     0.5205231002
   26      H       3.7119633516    -0.9193081048     1.0359403295
   27      C       5.6045180400    -1.4381410664    -0.3096918092
   28      O       6.5451235053    -1.8114028669    -1.0349885709
   29      N       2.3669214409     2.0596224251    -1.0023928242
   30      C       2.6998793491     2.2196757994     0.2684548111
   31      C       4.1265217395     2.4627545219     0.6567062842
   32      H       4.1384102336     2.9863388123     1.6196182453
   33      H       4.6571844280     1.5031539491     0.7668319052
   34      H       4.6602268532     3.0657339013    -0.0886980470
   35      C       3.2647681197     1.9271873174    -2.1540194153
   36      H       2.6186285548     2.0619783857    -3.0287442953
   37      H       3.9924365127     2.7501188826    -2.1375403679
   38      C       3.9846988172     0.5725863709    -2.1849517886
   39      H       4.6380335238     0.5554436264    -3.0727027485
   40      H       4.6412496240     0.5064494728    -1.3081182425
   41      C       3.0180158108    -0.6195014225    -2.2009766015
   42      H       2.2419853775    -0.4618270032    -1.4387106359
   43      H       2.4955167985    -0.6559100545    -3.1714859116
   44      C       3.6918600579    -1.9772719976    -1.9522990893
   45      H       2.9518340439    -2.7689841452    -2.1379644490
   46      H       4.5299478473    -2.1432297018    -2.6460370593
   47      C       4.2502404688    -2.1689103421    -0.5179535747
   48      H       4.4403968977    -3.2458840109    -0.3879685335
   49      C      -4.6969338586     1.4993989001    -0.9156443607
   50      H      -4.7650312180     1.6899806191     0.1680086303
   51      H      -5.6914535726     1.7202175132    -1.3357403107
   52      C      -3.6981245125     2.5054729472    -1.5110671511
   53      H      -4.1300631914     3.5118100088    -1.5365565941
   54      H      -3.4279484086     2.2260267797    -2.5400426184
   55      C      -4.3223893760     0.0268103283    -1.1631899431
   56      H      -3.2388191285    -0.0725778051    -1.0397925823
   57      H      -4.5585986817    -0.2456164965    -2.2056031093
   58      C      -5.0199101923    -0.9303414926    -0.1942724572
   59      H      -4.9597549539    -0.5222575743     0.8239660629
   60      H      -6.0830681039    -1.0509803885    -0.4486510676
   61      O      -3.5476319127    -3.5204698220    -2.0845213302
   62      O       5.6339352412    -0.5259803718     0.5656460225
   63      O       0.1291952378    -0.4372815205     0.3806789000
   64      Fe     -0.0678299205     1.4658648297     0.3833785392
   65      O      -0.6163508465     1.0702106958     2.3242202201
   66      O      -1.7033987711     1.4216257290    -0.7555546853
   67      O      -0.9198910906     3.4146105555     0.6442197334
   68      O       1.0286411695     1.8322072673    -1.2764941855
   69      O      -0.4539210994    -0.5065029249     3.8923596333
   70      O       1.7877642350     2.1433453108     1.1572519720
 ----------------------------------------------------------------
 Nuclear Repulsion Energy =        6052.53081746 hartrees
 There are      164 alpha and      159 beta electrons
No default van der Waals radius is available for Z = 26
	Found R = 2.4400 A in the $van_der_waals section
 Discretize the solute cavity surface with Lebedev spheres
	Using 110 Lebedev grid points for each H atom
	Using 194 Lebedev grid points for other atoms
	Atomic van der Waals radii (Bondi set) will be scaled by 1.20
 Using smooth SwiG surface discretization
 Remove points where switching function is < 1.0e-08
 Keep 4141 surface tesserae and discard 6919 interior tesserae
 Molecular Surface Area = 527.592 Angst**2

 Applying Cartesian multipole field
    Component          Value
    ---------          -----
     (2,0,0)        1.00000E-12
     (0,2,0)        2.00000E-12
     (0,0,2)       -3.00000E-11
 Nucleus-field energy     =-5.0740967091e-08 hartrees
 Read the previous MOs as SCF guess

 -----------------------------------------------------------------------
  General SCF calculation program by
  Eric Jon Sundstrom, Paul Horn, Yuezhi Mao, Dmitri Zuev, Alec White,
  David Stuck, Shaama M.S., Shane Yost, Joonho Lee, David Small,
  Daniel Levine, Susi Lehtola, Hugh Burton, Evgeny Epifanovsky,
  Bang C. Huynh
 -----------------------------------------------------------------------
 Requested basis set is non-standard
 There are 339 shells and 739 basis functions
 Exchange:     0.2000 Hartree-Fock + 0.0800 Slater + 0.7200 B88
 Correlation:  0.1900 VWN1RPA + 0.8100 LYP
 Using SG-1 standard quadrature grid
 Dispersion:   Grimme D3
 A cutoff of  1.0D-12 yielded  44958 shell pairs
 There are    195746 function pairs (    217192 Cartesian)
 Smallest overlap matrix eigenvalue = 2.96E-04
 A unrestricted SCF calculation will be
 performed using DIIS
 SCF converges when DIIS error is below 1.0e-08
 ---------------------------------------
  Cycle       Energy         DIIS error
 ---------------------------------------
    1   -3317.7257016955      5.17e-04  
    2   -3317.9233432705      4.34e-04  
    3   -3317.9924858450      2.52e-04  
    4   -3318.0046685868      1.35e-04  
    5   -3318.0067760512      1.21e-04  
    6   -3318.0092448575      4.35e-05  
    7   -3318.0096285161      1.69e-05  
    8   -3318.0096908833      5.69e-06  
    9   -3318.0096987530      2.10e-06  
   10   -3318.0096999735      1.05e-06  
   11   -3318.0097002840      4.07e-07  
   12   -3318.0097003518      2.45e-07  
   13   -3318.0097003702      8.44e-08  
   14   -3318.0097003719      4.38e-08  
   15   -3318.0097003723      1.42e-08  
   16   -3318.0097003724      9.61e-09  Convergence criterion met
 ---------------------------------------
 SCF time:   CPU 23424.83s  wall 1627.00s 
<S^2> =          8.758352069

************** Final PCM Free Energy Summary **************
 G_electrostatic  =      -0.52512825 hartree =    -329.52294784 kcal/mol
 G_cavitation     =       0.00000000 hartree =       0.00000000 kcal/mol
 G_dispersion     =       0.00000000 hartree =       0.00000000 kcal/mol
 G_repulsion      =       0.00000000 hartree =       0.00000000 kcal/mol
 --------------------------------------------------
 Non-electrostatic Free Energy =       0.00000000 hartree =       0.00000000 kcal/mol
 Total                         =      -0.52512825 hartree =    -329.52294784 kcal/mol
 --------------------------------------------------
 SCF Energy (H0 + V/2)                       =   -3318.00970037 
 Solute Internal Energy (H0)                 =   -3317.48457213 
 Total Free Energy (H0 + V/2 + non-elec)     =   -3318.00970037 hartree
                                             = -2082082.51185358 kcal/mol
***********************************************************

 SCF   energy in the final basis set =    -3318.0097003724
 Total energy in the final basis set =    -3318.0097003724
 
 --------------------------------------------------------------
 
                    Orbital Energies (a.u.)
 --------------------------------------------------------------
 
 Alpha MOs
 -- Occupied --
******** -30.1173 -25.9711 -25.9690 -25.9672 -19.1210 -19.1206 -19.1196
-19.1168 -19.0961 -19.0866 -19.0838 -19.0781 -19.0769 -19.0622 -19.0566
-19.0561 -19.0502 -14.4004 -14.3976 -14.3241 -14.3227 -10.2803 -10.2767
-10.2640 -10.2620 -10.2599 -10.2475 -10.2428 -10.2191 -10.2185 -10.2154
-10.1957 -10.1938 -10.1889 -10.1803 -10.1763 -10.1707 -10.1706 -10.1668
-10.1665 -10.1637 -10.1611 -10.1582  -3.5995  -2.3772  -2.3729  -2.3694
 -1.0710  -1.0653  -1.0316  -1.0148  -1.0117  -1.0046  -1.0007  -0.9999
 -0.9962  -0.9522  -0.9345  -0.9193  -0.9142  -0.8956  -0.8911  -0.8491
 -0.8451  -0.7861  -0.7844  -0.7608  -0.7487  -0.7396  -0.7222  -0.7162
 -0.7042  -0.6822  -0.6701  -0.6332  -0.6226  -0.6009  -0.5808  -0.5776
 -0.5451  -0.5428  -0.5399  -0.5286  -0.5187  -0.5127  -0.5045  -0.4994
 -0.4946  -0.4910  -0.4856  -0.4760  -0.4699  -0.4641  -0.4589  -0.4567
 -0.4526  -0.4489  -0.4387  -0.4377  -0.4364  -0.4289  -0.4273  -0.4254
 -0.4210  -0.4180  -0.4151  -0.4092  -0.4073  -0.4047  -0.3995  -0.3978
 -0.3963  -0.3946  -0.3935  -0.3907  -0.3887  -0.3864  -0.3842  -0.3810
 -0.3777  -0.3734  -0.3701  -0.3697  -0.3667  -0.3641  -0.3613  -0.3602
[...]
    3   0.0112707   0.0439219  -0.0491756  -0.0046471   0.0605820  -0.1370206
            7           8           9          10          11          12
    1   0.1678669  -0.1024127   0.1047592   0.0268063   0.0009445   0.0059490
    2   0.0225012   0.0315089  -0.0704715  -0.0112169  -0.0105659  -0.0173625
    3   0.0761021   0.0911421  -0.1416976   0.0093358  -0.0027927   0.0408837
           13          14          15          16          17          18
    1   0.0429804  -0.0249601   0.0042184  -0.0175593  -0.0050043  -0.0004829
    2   0.0094983  -0.0330801  -0.0285337   0.0463485   0.0370367  -0.0316493
    3  -0.0192431  -0.0295749  -0.0049760   0.0499318  -0.0625522   0.0026041
           19          20          21          22          23          24
    1  -0.0279011   0.0292727   0.0011945  -0.0374538  -0.0038042   0.0481615
    2   0.0221759   0.0096092   0.0442380  -0.0586440  -0.1201218   0.1615694
    3   0.1824461   0.0284215  -0.0559808  -0.0210627  -0.0548924   0.0675738
           25          26          27          28          29          30
    1  -0.0265863  -0.0295132   0.1420428  -0.1350336   0.0600877  -0.0195656
    2   0.0392672  -0.0695700   0.0267072   0.0456596   0.0107670   0.0011538
    3   0.0568630  -0.0422973   0.0143019   0.0994291   0.0362972   0.0065833
           31          32          33          34          35          36
    1  -0.0106945  -0.0012214  -0.0229265  -0.0274365   0.0102249   0.0301068
    2  -0.0072080  -0.0249467   0.0500879  -0.0327172   0.0138962  -0.0111232
    3  -0.0074415  -0.0552969  -0.0009255   0.0352443  -0.0126612   0.0491027
           37          38          39          40          41          42
    1  -0.0377757   0.0152867  -0.0314321  -0.0317435  -0.0348074   0.0526205
    2  -0.0371704   0.0082220  -0.0005674   0.0102920  -0.0069465  -0.0096454
    3  -0.0039594   0.0015108   0.0435167  -0.0450856   0.0013120  -0.0452015
           43          44          45          46          47          48
    1   0.0256385  -0.0096875   0.0433427  -0.0386934  -0.0023635  -0.0085966
    2  -0.0004657  -0.0193302   0.0436986   0.0102961  -0.0505382   0.0685754
    3   0.0538937  -0.0291561   0.0144668   0.0405504  -0.0091838  -0.0053302
           49          50          51          52          53          54
    1  -0.0076700   0.0013834   0.0435412  -0.0031222   0.0218485  -0.0128305
    2   0.0076493  -0.0106697  -0.0081579   0.0073928  -0.0422202   0.0154022
    3   0.0079518  -0.0552782   0.0190421  -0.0138785   0.0041781   0.0526516
           55          56          57          58          59          60
    1   0.0195874  -0.0692707   0.0148967  -0.0188504   0.0023389   0.0570770
    2  -0.0052956   0.0045593   0.0145788   0.0063748  -0.0272483   0.0023100
    3  -0.0082854  -0.0111563   0.0572275   0.0109579  -0.0541389   0.0115153
           61          62          63          64          65          66
    1  -0.1294993  -0.0367101  -0.0031667  -0.0069618   0.0289545   0.0224407
    2   0.0809289  -0.0746681   0.0180361   0.0012574  -0.1029000  -0.0033431
    3   0.0849404  -0.1131889   0.0271797  -0.0161562   0.0041767   0.0236209
           67          68          69          70
    1  -0.0742090  -0.0175044   0.0091906   0.0549367
    2  -0.0117424  -0.0119129   0.0504838  -0.0034929
    3  -0.0498627   0.0271303  -0.2164336  -0.0693264
 Max gradient component =       2.164E-01
 RMS gradient           =       5.074E-02
 Computing fast CPCM-SWIG gradient
 Updating gradient with PCM contributions...
 -- total gradient after adding PCM contribution --
---------------------------------------------------
  Atom         X              Y              Z     
---------------------------------------------------
   1       0.000017      -0.000069       0.000060
   2      -0.000040       0.000016       0.000013
   3       0.000016      -0.000003       0.000010
   4       0.000015       0.000078      -0.000018
   5       0.000006      -0.000020       0.000036
   6       0.000018      -0.000022       0.000001
   7       0.000027      -0.000008       0.000011
   8      -0.000019      -0.000020       0.000050
   9       0.000004      -0.000032      -0.000005
  10      -0.000038      -0.000012       0.000027
  11      -0.000033       0.000028      -0.000020
  12       0.000027      -0.000000      -0.000004
  13       0.000006      -0.000006      -0.000040
  14      -0.000016      -0.000026      -0.000006
  15       0.000010      -0.000025      -0.000136
  16      -0.000005      -0.000009       0.000057
  17      -0.000015       0.000016       0.000027
  18       0.000010       0.000091       0.000097
  19      -0.000007      -0.000067      -0.000015
  20      -0.000010      -0.000008      -0.000008
  21       0.000027       0.000036       0.000022
  22       0.000004       0.000004      -0.000017
  23       0.000023      -0.000034       0.000045
  24      -0.000015       0.000025      -0.000007
  25       0.000035      -0.000010       0.000027
  26      -0.000034       0.000042      -0.000026
  27       0.000056       0.000040       0.000013
  28      -0.000015       0.000002       0.000030
  29      -0.000108       0.000044       0.000002
  30       0.000045       0.000118      -0.000005
  31      -0.000013      -0.000029       0.000004
  32      -0.000009       0.000012      -0.000027
  33      -0.000008       0.000014      -0.000010
  34      -0.000009       0.000001      -0.000005
  35       0.000042       0.000025      -0.000012
  36      -0.000015       0.000004       0.000001
  37      -0.000001      -0.000036      -0.000023
  38      -0.000066      -0.000112      -0.000049
  39       0.000040       0.000041       0.000035
  40      -0.000010      -0.000007       0.000009
  41       0.000044       0.000061      -0.000078
  42       0.000005       0.000010       0.000019
  43      -0.000012      -0.000032       0.000017
  44      -0.000037      -0.000011       0.000062
  45       0.000019       0.000003      -0.000016
  46       0.000004       0.000007       0.000004
  47       0.000008      -0.000094       0.000049
  48      -0.000024       0.000019      -0.000019
  49       0.000011      -0.000013       0.000034
  50      -0.000015       0.000009      -0.000016
  51       0.000006      -0.000017      -0.000016
  52      -0.000032       0.000018      -0.000057
  53       0.000019      -0.000020      -0.000001
  54      -0.000012      -0.000005      -0.000003
  55      -0.000082      -0.000011       0.000016
  56       0.000018      -0.000025      -0.000031
  57       0.000037       0.000011      -0.000006
  58      -0.000007      -0.000026      -0.000005
  59       0.000020       0.000022      -0.000010
  60       0.000013      -0.000027       0.000015
  61      -0.000025      -0.000003       0.000023
  62      -0.000009       0.000002      -0.000023
  63      -0.000019       0.000089      -0.000068
  64       0.000004      -0.000002       0.000226
  65      -0.000012       0.000017      -0.000020
  66      -0.000008       0.000015      -0.000073
  67      -0.000021       0.000035      -0.000122
  68       0.000119      -0.000050       0.000008
  69       0.000028       0.000022       0.000001
  70       0.000019      -0.000083      -0.000054
---------------------------------------------------
 Number of fixed atoms: 0
 Gradient time:  CPU 21830.85 s  wall 1344.01 s

     Step 29	:
        Energy is -3318.0120633502
                            Maximum         Tolerance       Converged?
         Gradient           5.96899440e-05	3.00000000e-04	true
         Displacement       4.82145062e-03	1.20000000e-03	false
         Energy change      9.90725312e-07	1.00000000e-06	true

	 Optimization Converged in 29 cycles

 *****************************************************
             End of BFGS Algorithm
 *****************************************************
		----------------------------------
		   Verification of Optimization
		----------------------------------

 Eigenvalues of Hessian in Optimization Verification
   0.00121601   0.00349917   0.00772308   0.01191042   0.02789143
   0.04169872   0.06880520   0.09985473   0.10000013   0.10000063
   0.10000114   0.10000285   0.10000373   0.10000492   0.10001240
   0.10001624   0.10001969   0.10002425   0.10002816   0.10004139
   0.10004918   0.10005286   0.10008301   0.10011400   0.10021038
   0.10057825   0.10125837   0.10190567   0.10236189   0.10289320
   0.10320935   0.10364898   0.10425661   0.10468309   0.10668566
   0.10894111   0.10948488   0.11087925   0.11223981   0.11353671
   0.11660528   0.11793883   0.11927049   0.11994621   0.12089643
   0.12111428   0.12193517   0.12258117   0.12344189   0.12395119
   0.12510394   0.12617961   0.12667243   0.12674599   0.12717593
   0.12819640   0.12877946   0.12992687   0.13236924   0.13283507
   0.13464475   0.13552571   0.13649217   0.13693034   0.13697553
   0.13819509   0.13953580   0.14177989   0.14190927   0.14374943
   0.14433403   0.14489196   0.14576477   0.15008028   0.15127326
   0.15181651   0.15207160   0.15242297   0.15368723   0.15382757
   0.15487338   0.15592672   0.15658172   0.15773315   0.15892754
   0.15915638   0.16024424   0.16769567   0.17558564   0.17607454
   0.17655041   0.17689245   0.17767646   0.17820261   0.17901239
   0.17941630   0.18063562   0.18140253   0.18277934   0.18351069
   0.18444289   0.18868348   0.19153632   0.19660312   0.19675805
   0.19781259   0.19832870   0.19866940   0.19906591   0.19940280
   0.19970372   0.19976263   0.19990075   0.19995699   0.19997657
   0.19998799   0.19999235   0.20001562   0.20002892   0.20045228
   0.20060061   0.20171983   0.20325747   0.20415140   0.21363381
   0.24558598   0.25550024   0.27783623   0.30194320   0.32294252
   0.35604567   0.37145423   0.40521511   0.41415506   0.42018128
   0.43678066   0.45224311   0.45880523   0.46233987   0.47010776
   0.47674746   0.48151594   0.48423178   0.48689615   0.49148274
   0.49355615   0.49379110   0.49617739   0.49845540   0.49881217
   0.49984699   0.49994207   0.49996180   0.49999918   0.50000000
   0.50000000   0.50000000   0.50000000   0.50000000   0.50000000
   0.50000000   0.50000000   0.50000000   0.50000000   0.50000000
   0.50000000   0.50000000   0.50000000   0.50000000   0.50000000
   0.50000000   0.50000000   0.50000000   0.50000000   0.50000000
   0.50000000   0.50000000   0.50000000   0.50000000   0.50000000
   0.50000000   0.50000000   0.50000000   0.50000008   0.50000013
   0.50000037   0.50000122   0.50000177   0.50000445   0.50001135
   0.50001700   0.50008129   0.50016623   0.50117066   0.50163246
   0.51072259   0.51369436   0.52253988   0.52664660   0.52967706
   0.55224223   0.57369254   0.58901160   0.77492156

 Found a minimum
		---------------------------------
		       End of Verification
		---------------------------------

 Final energy is -3318.012063350161

	******************************
	**  OPTIMIZATION CONVERGED  **
	******************************
 Adding empirical dispersion correction 
 ----------------------------------------------------------------
 Doing -D3(BJ) with
 s6  =   1.00000
 s8  =   1.98890
 a1  =   0.39810
 a2  =   4.42110
 -D3 energy without 3body term =     -0.1699569053 hartrees
 ----------------------------------------------------------------
             Standard Nuclear Orientation (Angstroms)
    I     Atom           X                Y                Z
 ----------------------------------------------------------------
    1      N      -2.4262102488     2.5604723041    -0.8388025091
    2      C      -4.3697263871    -2.3336988894    -0.1243507316
    3      H      -4.9163457271    -2.9093986528     0.6470412788
    4      N      -2.9499867929    -2.3379093692     0.2046549022
    5      H      -2.4124937108    -2.8745560551    -0.4769806243
    6      C      -4.5455961403    -3.0993933637    -1.4737687915
    7      O      -5.7154687411    -3.1484993439    -1.9280401736
    8      C      -2.4071864466    -1.9391830282     1.3721449778
    9      O      -3.0622167237    -1.3505364980     2.2496254802
   10      C      -2.0260629887     3.5569212418    -0.0511168618
   11      C      -2.8224129654     4.8326616304     0.0355602819
   12      H      -2.9682921296     5.2877820138    -0.9554896157
   13      H      -3.8154730464     4.6506222926     0.4749855049
   14      H      -2.2735847991     5.5343201883     0.6753001102
   15      C      -0.9430901043    -2.2984129966     1.5792449890
   16      H      -0.5813581283    -2.9897818202     0.8076472215
   17      H      -0.8907195871    -2.8071862961     2.5541621855
   18      C       0.0248566062    -1.0904763517     1.6136424959
   19      C      -0.4023025400    -0.0945765431     2.7302255553
   20      C       1.4595838582    -1.5656434232     1.9909155791
   21      H       1.4140663947    -2.2467806844     2.8538641285
   22      H       2.0406133750    -0.6806517777     2.2864484453
   23      C       2.1625088339    -2.2635353204     0.8394093170
   24      O       1.7302343944    -3.3027350923     0.3116677809
   25      N       3.2951585498    -1.6595202654     0.4289568502
   26      H       3.7112878309    -0.9028188354     0.9688633909
   27      C       5.5855269703    -1.5076207061    -0.4073525917
   28      O       6.4751313551    -1.8720256340    -1.2109803723
   29      N       2.3914870906     2.0758287861    -0.9324525316
   30      C       2.7142644082     2.1492393336     0.3542507775
   31      C       4.1437604356     2.3318264594     0.7774985685
   32      H       4.1514166246     2.7719597939     1.7833001316
   33      H       4.6598168793     1.3558947724     0.8110817614
   34      H       4.6994619653     2.9843751002     0.0899630317
   35      C       3.3172906415     1.9925212715    -2.0649954385
   36      H       2.7035037548     2.2093244957    -2.9495150303
   37      H       4.0716867787     2.7879088979    -1.9726641957
   38      C       3.9927288523     0.6221881072    -2.1631300235
   39      H       4.6786712576     0.6320796178    -3.0287325077
   40      H       4.6205965677     0.4922397655    -1.2721197568
   41      C       3.0007508724    -0.5398420200    -2.2649116925
   42      H       2.2018478723    -0.3838116625    -1.5239184832
   43      H       2.5126842207    -0.5208690601    -3.2557272457
   44      C       3.6132402570    -1.9260634376    -2.0320803434
   45      H       2.8324926362    -2.6821713354    -2.2133668124
   46      H       4.4345798704    -2.1257699277    -2.7395310176
   47      C       4.1798413933    -2.1519366847    -0.6100847866
   48      H       4.3115437375    -3.2410287478    -0.4841465994
   49      C      -4.6661961556     1.4818040840    -0.9598821139
   50      H      -4.7163975172     1.7087111406     0.1202044930
   51      H      -5.6686564326     1.6954810235    -1.3701588245
   52      C      -3.6718364993     2.4648034466    -1.5943757541
   53      H      -4.1047336024     3.4700505028    -1.6521166074
   54      H      -3.4091848119     2.1495764340    -2.6177236235
   55      C      -4.3069943427     0.0039695162    -1.1649159037
   56      H      -3.2225310154    -0.1024073681    -1.0432693050
   57      H      -4.5450687797    -0.2942985884    -2.2020456447
   58      C      -4.9985799640    -0.9313343133    -0.1757820243
   59      H      -4.9406597712    -0.4949367749     0.8330492217
   60      H      -6.0630383764    -1.0627409995    -0.4265266090
   61      O      -3.5035423365    -3.6032773967    -1.9812468029
   62      O       5.7053500894    -0.6821135442     0.5482107361
   63      O       0.0656825229    -0.4509089781     0.3732389177
   64      Fe     -0.0829581007     1.4589670284     0.3683626892
   65      O      -0.6582136511     1.1066292887     2.3136245000
   66      O      -1.6709868808     1.4268674878    -0.8297077509
   67      O      -0.9580369705     3.4058589294     0.6257068461
   68      O       1.0734614797     1.8875960792    -1.2350858312
   69      O      -0.4246347320    -0.4524128999     3.9146550035
   70      O       1.7841577709     2.0491766524     1.2237763784
 ----------------------------------------------------------------
 Nuclear Repulsion Energy =        6061.29520864 hartrees
 There are      164 alpha and      159 beta electrons

Z-matrix Print:
$molecule
-3 6
Fe
O  1 1.915658
C  2 1.396178 1 117.174001
C  3 1.548294 2 110.850319 1 132.972953 0
H  4 1.097362 3 107.522009 2 59.456234 0
H  4 1.100934 3 108.127214 2 176.318174 0
C  4 1.521682 3 114.857084 2 -65.581385 0
O  7 1.243198 4 121.511482 3 -69.144248 0
N  7 1.347831 4 115.819213 3 112.968736 0
H  9 1.020547 7 121.466640 4 2.008786 0
C  9 1.457369 7 125.945528 4 168.084893 0
H  11 1.106918 9 108.798710 7 -54.955427 0
C  11 1.537767 9 114.114770 7 64.685327 0
H  13 1.100699 11 108.022484 9 -63.782979 0
H  13 1.101459 11 107.098675 9 -179.736031 0
C  13 1.526915 11 113.269359 9 57.166321 0
H  16 1.096437 13 108.462433 11 -44.475654 0
H  16 1.105116 13 110.184714 11 72.243434 0
C  16 1.534620 13 113.410359 11 -164.529906 0
H  19 1.104043 16 110.441965 13 -77.184247 0
H  19 1.104805 16 109.818047 13 39.851861 0
C  19 1.535455 16 114.187310 13 160.761211 0
H  22 1.096018 19 110.681080 16 164.897892 0
H  22 1.102540 19 110.780062 16 45.247429 0
N  22 1.460010 19 112.371282 16 -74.643429 0
C  25 1.331720 22 127.696682 19 -105.574918 0
O  26 1.273417 25 118.530153 22 173.558920 0
O  25 1.362169 22 114.957167 19 66.292811 0
C  26 1.506386 25 120.588298 22 -6.394130 0
H  29 1.096724 26 108.109491 25 -175.719906 0
H  29 1.100271 26 111.627641 25 -55.726410 0
H  29 1.101091 26 111.083757 25 64.822757 0
C  3 1.555969 2 110.632783 1 10.536674 0
O  33 1.237505 3 120.445077 2 -175.904306 0
O  33 1.296897 3 114.612478 2 1.145859 0
C  3 1.557742 2 109.145630 1 -105.628999 0
H  36 1.099157 3 107.841627 2 74.130529 0
H  36 1.100318 3 109.917828 2 -168.329972 0
C  36 1.518922 3 112.505914 2 -46.376122 0
O  39 1.243104 36 123.025862 3 -60.898717 0
N  39 1.347665 36 114.450581 3 118.801519 0
H  41 1.018459 39 120.993686 36 10.484268 0
C  41 1.450774 39 125.346100 36 177.233691 0
H  43 1.104232 41 109.014734 39 -42.887091 0
C  43 1.547297 41 112.665511 39 75.742802 0
H  45 1.101876 43 108.089224 41 -76.753627 0
H  45 1.102256 43 106.889957 41 167.977187 0
C  45 1.533285 43 114.696415 41 44.036406 0
H  48 1.100755 45 108.412243 43 -57.421815 0
H  48 1.104665 45 109.160819 43 -172.816707 0
C  48 1.531239 45 114.659115 43 64.008043 0
H  51 1.097727 48 109.551558 45 -45.675726 0
H  51 1.104483 48 110.918364 45 71.458541 0
C  51 1.530902 48 113.436011 45 -166.219506 0
H  54 1.098232 51 111.818011 48 -60.949941 0
H  54 1.100127 51 110.487082 48 178.793308 0
N  54 1.465164 51 112.286063 48 56.736825 0
C  57 1.328601 54 126.743555 51 72.536050 0
O  58 1.277179 57 118.560977 54 -171.434132 0
O  57 1.365361 54 115.518362 51 -98.603821 0
C  58 1.501977 57 120.720184 54 7.947582 0
H  61 1.097913 58 108.271614 57 156.903678 0
H  61 1.098785 58 112.160727 57 36.135675 0
H  61 1.104484 58 110.233256 57 -84.127148 0
C  43 1.559550 41 108.439874 39 -158.534652 0
O  65 1.252998 43 115.874933 41 177.868169 0
O  65 1.268432 43 116.869009 41 -1.873502 0
C  11 1.561457 9 107.662167 7 -170.527607 0
O  68 1.255936 11 115.891547 9 -177.623875 0
O  68 1.263847 11 116.721135 9 2.709572 0
$end

 -----------------------------------------------------------------------
                  END OF GEOMETRY OPTIMIZER USING LIBOPT3               
 -----------------------------------------------------------------------
 Total job time:  90899.45s(wall), 1208328.64s(cpu) 
 Thu Apr  6 10:14:30 2023

        *************************************************************
        *                                                           *
        *  Thank you very much for using Q-Chem.  Have a nice day.  *
        *                                                           *
        *************************************************************


