You are running Q-Chem version: 6.0.2

#
# job setting
#
local host:  itcotck
current dir: /home/cooksy_group/sgardner/carrano
input file:  C_FeAB_C_ccL_3quartet_SfS_b3lypD3bj_ccpVDZ_pcmH2O_opt.in
output file: 
nprocs     : 1
nthreads   : 16
#
# qchem installation setting
#
QC:          /opt/qchem/6.0.2
QCAUX:       /opt/qchem/6.0.2/qcaux
QCPROG:      /opt/qchem/6.0.2/exe/qcprog.exe_s
QCPROG_S:    /opt/qchem/6.0.2/exe/qcprog.exe_s
PARALLEL:    -DSERIAL
QCMPI:       seq
#
# qchem directory setting
#
qcrun:       qchem13447
QCSCRATCH:   /scratch/qchem_scratch
QCLOCALSCR:  
QCTMPDIR:    /scratch/qchem_scratch
QCFILEPREF:  /scratch/qchem_scratch/qchem13447
QCSAVEDIR:   
workdirs:    /scratch/qchem_scratch/qchem13447
workdir0:    /scratch/qchem_scratch/qchem13447
partmpdirs =  
#
# parallel setting
#
QCRSH:           ssh
QCMPI:           seq
QCMPIRUN:        
QCMACHINEFILE:   /opt/qchem/6.0.2/bin/mpi/machines


#
# env setting
#
exported envs:   QC QCAUX QCSCRATCH QCRUNNAME QCFILEPREF QCPROG QCPROG_S GUIFILE

Running Job 1 of 1 C_FeAB_C_ccL_3quartet_SfS_b3lypD3bj_ccpVDZ_pcmH2O_opt.in
qchem C_FeAB_C_ccL_3quartet_SfS_b3lypD3bj_ccpVDZ_pcmH2O_opt.in_13447.0 /scratch/qchem_scratch/qchem13447/ 1
/opt/qchem/6.0.2/exe/qcprog.exe_s C_FeAB_C_ccL_3quartet_SfS_b3lypD3bj_ccpVDZ_pcmH2O_opt.in_13447.0 /scratch/qchem_scratch/qchem13447/
                  Welcome to Q-Chem
     A Quantum Leap Into The Future Of Chemistry


 Q-Chem 6.0, Q-Chem, Inc., Pleasanton, CA (2022)

 E. Epifanovsky,  A. T. B. Gilbert,  Xintian Feng,  Joonho Lee,  Yuezhi Mao,  
 N. Mardirossian,  P. Pokhilko,  A. White,  M. Wormit,  M. P. Coons,  
 A. L. Dempwolff,  Zhengting Gan,  D. Hait,  P. R. Horn,  L. D. Jacobson,  
 I. Kaliman,  J. Kussmann,  A. W. Lange,  Ka Un Lao,  D. S. Levine,  Jie Liu,  
 S. C. McKenzie,  A. F. Morrison,  K. Nanda,  F. Plasser,  D. R. Rehn,  
 M. L. Vidal,  Zhi-Qiang You,  Ying Zhu,  B. Alam,  B. Albrecht,  
 A. Aldossary,  E. Alguire,  J. H. Andersen,  V. Athavale,  D. Barton,  
 K. Begam,  A. Behn,  N. Bellonzi,  Y. A. Bernard,  E. J. Berquist,  
 H. Burton,  A. Carreras,  K. Carter-Fenk,  Romit Chakraborty,  
 Chandrima Chakravarty,  Junhan Chen,  A. D. Chien,  K. D. Closser,  
 V. Cofer-Shabica,  L. Cunha,  S. Dasgupta,  Jia Deng,  M. de Wergifosse,  
 M. Diedenhofen,  Hainam Do,  S. Ehlert,  Po-Tung Fang,  S. Fatehi,  
 Qingguo Feng,  T. Friedhoff,  B. Ganoe,  J. Gayvert,  Qinghui Ge,  
 G. Gidofalvi,  M. Goldey,  J. Gomes,  C. Gonzalez-Espinoza,  S. Gulania,  
 A. Gunina,  J. A. Gyamfi,  M. W. D. Hanson-Heine,  P. H. P. Harbach,  
 A. W. Hauser,  M. F. Herbst,  M. Hernandez Vera,  M. Hodecker,  
 Z. C. Holden,  S. Houck,  Xunkun Huang,  Kerwin Hui,  B. C. Huynh,  
 K. Ikeda,  M. Ivanov,  Hyunjun Ji,  Zuxin Jin,  Hanjie Jiang,  B. Kaduk,  
 S. Kaehler,  R. Kang,  K. Khistyaev,  Jaehoon Kim,  Yongbin Kim,  
 P. Klunzinger,  Z. Koczor-Benda,  Joong Hoon Koh,  D. Kosenkov,  
 Saikiran Kotaru,  L. Koulias,  T. Kowalczyk,  C. M. Krauter,  K. Kue,  
 A. Kunitsa,  T. Kus,  A. Landau,  K. V. Lawler,  D. Lefrancois,  S. Lehtola,  
 Rain Li,  Shaozhi Li,  Yi-Pei Li,  Jiashu Liang,  M. Liebenthal,  
 Hung-Hsuan Lin,  You-Sheng Lin,  Fenglai Liu,  Kuan-Yu Liu,  
 M. Loipersberger,  A. Luenser,  C. Malbon,  A. Manjanath,  P. Manohar,  
 E. Mansoor,  S. F. Manzer,  Shan-Ping Mao,  A. V. Marenich,  T. Markovich,  
 S. Mason,  F. Matz,  S. A. Maurer,  P. F. McLaughlin,  M. F. S. J. Menger,  
 J.-M. Mewes,  S. A. Mewes,  P. Morgante,  Mohammad Mostafanejad,  
 J. W. Mullinax,  K. J. Oosterbaan,  G. Paran,  V. Parravicini,  
 Alexander C. Paul,  Suranjan K. Paul,  F. Pavosevic,  Zheng Pei,  S. Prager,  
 E. I. Proynov,  E. Ramos,  B. Rana,  A. E. Rask,  A. Rettig,  R. M. Richard,  
 F. Rob,  E. Rossomme,  T. Scheele,  M. Scheurer,  M. Schneider,  
 P. E. Schneider,  N. Sergueev,  S. M. Sharada,  Hengyuan Shen,  
 W. Skomorowski,  D. W. Small,  C. J. Stein,  Yingli Su,  Yu-Chuan Su,  
 E. J. Sundstrom,  Zhen Tao,  J. Thirman,  Hung-Yi Tsai,  T. Tsuchimochi,  
 N. M. Tubman,  C. Utku,  S. P. Veccham,  O. Vydrov,  J. Wenzel,  
 Jonathan Wong,  J. Witte,  A. Yamada,  Chou-Hsun Yang,  Kun Yao,  
 S. Yeganeh,  S. R. Yost,  A. Zech,  F. Zeller,  Igor Ying Zhang,  
 Xing Zhang,  Yu Zhang,  D. Zuev,  A. Aspuru-Guzik,  A. T. Bell,  
 N. A. Besley,  K. B. Bravaya,  B. R. Brooks,  D. Casanova,  Jeng-Da Chai,  
 Hsing-Ta Chen,  S. Coriani,  C. J. Cramer,  A. E. DePrince, III,  
 R. A. DiStasio Jr.,  A. Dreuw,  B. D. Dunietz,  T. R. Furlani,  
 W. A. Goddard III,  S. Grimme,  S. Hammes-Schiffer,  T. Head-Gordon,  
 W. J. Hehre,  Chao-Ping Hsu,  T.-C. Jagau,  Yousung Jung,  A. Klamt,  
 Jing Kong,  D. S. Lambrecht,  Xiangyuan Li,  WanZhen Liang,  N. J. Mayhall,  
 C. W. McCurdy,  J. B. Neaton,  T. Neudecker,  C. Ochsenfeld,  
 J. A. Parkhill,  R. Peverati,  V. A. Rassolov,  Haisheng Ren,  Yihan Shao,  
 L. V. Slipchenko,  R. P. Steele,  J. E. Subotnik,  A. J. W. Thom,  
 A. Tkatchenko,  D. G. Truhlar,  T. Van Voorhis,  Fan Wang,  
 T. A. Wesolowski,  K. B. Whaley,  H. L. Woodcock III,  P. M. Zimmerman,  
 S. Faraji,  P. M. W. Gill,  M. Head-Gordon,  J. M. Herbert,  A. I. Krylov

 Contributors to earlier versions of Q-Chem not listed above: 
 R. D. Adamson,  B. Austin,  R. Baer,  J. Baker,  G. J. O. Beran,  
 K. Brandhorst,  S. T. Brown,  E. F. C. Byrd,  Arup K. Chakraborty,  
 G. K. L. Chan,  Chun-Min Chang,  Yunqing Chen,  C.-L. Cheng,  
 Siu Hung Chien,  D. M. Chipman,  D. L. Crittenden,  H. Dachsel,  
 R. J. Doerksen,  A. D. Dutoi,  R. G. Edgar,  J. Fosso-Tande,  
 L. Fusti-Molnar,  D. Ghosh,  A. Ghysels,  A. Golubeva-Zadorozhnaya,  
 J. Gonthier,  M. S. Gordon,  S. R. Gwaltney,  G. Hawkins,  J. E. Herr,  
 A. Heyden,  S. Hirata,  E. G. Hohenstein,  G. Kedziora,  F. J. Keil,  
 C. Kelley,  Jihan Kim,  R. A. King,  R. Z. Khaliullin,  P. P. Korambath,  
 W. Kurlancheek,  A. Laurent,  A. M. Lee,  M. S. Lee,  S. V. Levchenko,  
 Ching Yeh Lin,  D. Liotard,  E. Livshits,  R. C. Lochan,  I. Lotan,  
 L. A. Martinez-Martinez,  P. E. Maslen,  N. Nair,  D. P. O'Neill,  
 D. Neuhauser,  E. Neuscamman,  C. M. Oana,  R. Olivares-Amaya,  R. Olson,  
 T. M. Perrine,  B. Peters,  P. A. Pieniazek,  A. Prociuk,  Y. M. Rhee,  
 J. Ritchie,  M. A. Rohrdanz,  E. Rosta,  N. J. Russ,  H. F. Schaefer III,  
 M. W. Schmidt,  N. E. Schultz,  S. Sharma,  N. Shenvi,  C. D. Sherrill,  
 A. C. Simmonett,  A. Sodt,  T. Stein,  D. Stuck,  K. S. Thanthiriwatte,  
 V. Vanovschi,  L. Vogt,  Tao Wang,  A. Warshel,  M. A. Watson,  
 C. F. Williams,  Q. Wu,  X. Xu,  Jun Yang,  W. Zhang,  Yan Zhao

   Please cite Q-Chem as follows:
  "Software for the frontiers of quantum chemistry:
   An overview of developments in the Q-Chem 5 package"
   J. Chem. Phys. 155, 084801 (2021)
   https://doi.org/10.1063/5.0055522 (open access)

 Q-Chem 6.0.2 for Intel X86 EM64T Linux

 Parts of Q-Chem use Armadillo 9.900.5 (Nocturnal Misbehaviour).
 http://arma.sourceforge.net/

 Q-Chem begins on Tue May 28 12:44:01 2024  

 Host: 
0

     Scratch files written to /scratch/qchem_scratch/qchem13447//
 Dec722 |scratch|qcdevops|jenkins|workspace|build_RNUM 8907   
 Processing $rem in /opt/qchem/6.0.2/config/preferences:
 Processing $rem in /home/cooksy_group/.qchemrc:
 Symmetry turned off for PCM/SM12/SMD calculation

 Checking the input file for inconsistencies... 	...done.

--------------------------------------------------------------
User input:
--------------------------------------------------------------
$molecule
-3 4
N   -2.4262102    2.5604723   -0.8388025
C   -4.3697264   -2.3336989   -0.1243507
H   -4.9163457   -2.9093987    0.6470413
N   -2.9499868   -2.3379094    0.2046549
H   -2.4124937   -2.8745561   -0.4769806
C   -4.5455961   -3.0993934   -1.4737688
O   -5.7154687   -3.1484993   -1.9280402
C   -2.4071864   -1.9391830    1.3721450
O   -3.0622167   -1.3505365    2.2496255
C   -2.0260630    3.5569212   -0.0511169
C   -2.8224130    4.8326616    0.0355603
H   -2.9682921    5.2877820   -0.9554896
H   -3.8154730    4.6506223    0.4749855
H   -2.2735848    5.5343202    0.6753001
C   -0.9430901   -2.2984130    1.5792450
H   -0.5813581   -2.9897818    0.8076472
H   -0.8907196   -2.8071863    2.5541622
C    0.0248566   -1.0904764    1.6136425
C   -0.4023025   -0.0945765    2.7302256
C    1.4595839   -1.5656434    1.9909156
H    1.4140664   -2.2467807    2.8538641
H    2.0406134   -0.6806518    2.2864484
C    2.1625088   -2.2635353    0.8394093
O    1.7302344   -3.3027351    0.3116678
N    3.2951585   -1.6595203    0.4289569
H    3.7112878   -0.9028188    0.9688634
C    5.5855270   -1.5076207   -0.4073526
O    6.4751314   -1.8720256   -1.2109804
N    2.3914871    2.0758288   -0.9324525
C    2.7142644    2.1492393    0.3542508
C    4.1437604    2.3318265    0.7774986
H    4.1514166    2.7719598    1.7833001
H    4.6598169    1.3558948    0.8110818
H    4.6994620    2.9843751    0.0899630
C    3.3172906    1.9925213   -2.0649954
H    2.7035038    2.2093245   -2.9495150
H    4.0716868    2.7879089   -1.9726642
C    3.9927289    0.6221881   -2.1631300
H    4.6786713    0.6320796   -3.0287325
H    4.6205966    0.4922398   -1.2721198
C    3.0007509   -0.5398420   -2.2649117
H    2.2018479   -0.3838117   -1.5239185
H    2.5126842   -0.5208691   -3.2557272
C    3.6132403   -1.9260634   -2.0320803
H    2.8324926   -2.6821713   -2.2133668
H    4.4345799   -2.1257699   -2.7395310
C    4.1798414   -2.1519367   -0.6100848
H    4.3115437   -3.2410287   -0.4841466
C   -4.6661962    1.4818041   -0.9598821
H   -4.7163975    1.7087111    0.1202045
H   -5.6686564    1.6954810   -1.3701588
C   -3.6718365    2.4648034   -1.5943758
H   -4.1047336    3.4700505   -1.6521166
H   -3.4091848    2.1495764   -2.6177236
C   -4.3069943    0.0039695   -1.1649159
H   -3.2225310   -0.1024074   -1.0432693
H   -4.5450688   -0.2942986   -2.2020456
C   -4.9985800   -0.9313343   -0.1757820
H   -4.9406598   -0.4949368    0.8330492
H   -6.0630384   -1.0627410   -0.4265266
O   -3.5035423   -3.6032774   -1.9812468
O    5.7053501   -0.6821135    0.5482107
O    0.0656825   -0.4509090    0.3732389
Fe   -0.0829581    1.4589670    0.3683627
O   -0.6582137    1.1066293    2.3136245
O   -1.6709869    1.4268675   -0.8297078
O   -0.9580370    3.4058589    0.6257068
O    1.0734615    1.8875961   -1.2350858
O   -0.4246347   -0.4524129    3.9146550
O    1.7841578    2.0491767    1.2237764
$end

$rem
BASIS  =  gen
DFT_D  =  D3_BJ
GUI  =  2
JOB_TYPE  =  Optimization
METHOD  =  B3LYP
BASIS GEN
PURECART 11
SCF_CONVERGENCE  =  8
SOLVENT_METHOD  =  PCM
MEM_TOTAL  =  30000
GEOM_OPT_MAX_CYCLES = 200
$end

$pcm
THEORY  CPCM
$end

$solvent
DIELECTRIC  78.39
$end

$van_der_waals
26   2.44
$end

$basis
H     0
S   4   1.00
1.301000D+01           1.968500D-02
1.962000D+00           1.379770D-01
4.446000D-01           4.781480D-01
1.220000D-01           5.012400D-01
S   1   1.00
1.220000D-01           1.000000D+00
P   1   1.00
7.270000D-01           1.0000000
****
C     0
S   9   1.00
6.665000D+03           6.920000D-04
1.000000D+03           5.329000D-03
2.280000D+02           2.707700D-02
6.471000D+01           1.017180D-01
2.106000D+01           2.747400D-01
7.495000D+00           4.485640D-01
2.797000D+00           2.850740D-01
5.215000D-01           1.520400D-02
1.596000D-01          -3.191000D-03
S   9   1.00
6.665000D+03          -1.460000D-04
1.000000D+03          -1.154000D-03
2.280000D+02          -5.725000D-03
6.471000D+01          -2.331200D-02
2.106000D+01          -6.395500D-02
7.495000D+00          -1.499810D-01
2.797000D+00          -1.272620D-01
5.215000D-01           5.445290D-01
1.596000D-01           5.804960D-01
S   1   1.00
1.596000D-01           1.000000D+00
P   4   1.00
9.439000D+00           3.810900D-02
2.002000D+00           2.094800D-01
5.456000D-01           5.085570D-01
1.517000D-01           4.688420D-01
P   1   1.00
1.517000D-01           1.000000D+00
D   1   1.00
5.500000D-01           1.0000000
****
N     0
S   9   1.00
9.046000D+03           7.000000D-04
1.357000D+03           5.389000D-03
3.093000D+02           2.740600D-02
8.773000D+01           1.032070D-01
2.856000D+01           2.787230D-01
1.021000D+01           4.485400D-01
3.838000D+00           2.782380D-01
7.466000D-01           1.544000D-02
2.248000D-01          -2.864000D-03
S   9   1.00
9.046000D+03          -1.530000D-04
1.357000D+03          -1.208000D-03
3.093000D+02          -5.992000D-03
8.773000D+01          -2.454400D-02
2.856000D+01          -6.745900D-02
1.021000D+01          -1.580780D-01
3.838000D+00          -1.218310D-01
7.466000D-01           5.490030D-01
2.248000D-01           5.788150D-01
S   1   1.00
2.248000D-01           1.000000D+00
P   4   1.00
1.355000D+01           3.991900D-02
2.917000D+00           2.171690D-01
7.973000D-01           5.103190D-01
2.185000D-01           4.622140D-01
P   1   1.00
2.185000D-01           1.000000D+00
D   1   1.00
8.170000D-01           1.0000000
****
O     0
S   9   1.00
1.172000D+04           7.100000D-04
1.759000D+03           5.470000D-03
4.008000D+02           2.783700D-02
1.137000D+02           1.048000D-01
3.703000D+01           2.830620D-01
1.327000D+01           4.487190D-01
5.025000D+00           2.709520D-01
1.013000D+00           1.545800D-02
3.023000D-01          -2.585000D-03
S   9   1.00
1.172000D+04          -1.600000D-04
1.759000D+03          -1.263000D-03
4.008000D+02          -6.267000D-03
1.137000D+02          -2.571600D-02
3.703000D+01          -7.092400D-02
1.327000D+01          -1.654110D-01
5.025000D+00          -1.169550D-01
1.013000D+00           5.573680D-01
3.023000D-01           5.727590D-01
S   1   1.00
3.023000D-01           1.000000D+00
P   4   1.00
1.770000D+01           4.301800D-02
3.854000D+00           2.289130D-01
1.046000D+00           5.087280D-01
2.753000D-01           4.605310D-01
P   1   1.00
2.753000D-01           1.000000D+00
D   1   1.00
1.185000D+00           1.0000000
****
Fe     0
S   20   1.00
4.316265D+06           8.048803D-06
6.463424D+05           6.258306D-05
1.470897D+05           3.290239D-04
4.166152D+04           1.387355D-03
1.359077D+04           5.023256D-03
4.905750D+03           1.610140D-02
1.912746D+03           4.590034D-02
7.926043D+02           1.136154D-01
3.448065D+02           2.283869D-01
1.558999D+02           3.221159D-01
7.223091D+01           2.383661D-01
3.272506D+01           7.404667D-02
1.566762D+01           9.214197D-02
7.503483D+00           9.339790D-02
3.312223D+00           1.573965D-02
1.558471D+00          -4.186682D-04
6.839140D-01           5.376318D-05
1.467570D-01          -3.816654D-05
7.058300D-02           4.319603D-05
3.144900D-02          -3.401019D-06
S   20   1.00
4.316265D+06          -4.155954D-06
6.463424D+05          -3.231401D-05
1.470897D+05          -1.699525D-04
4.166152D+04          -7.171369D-04
1.359077D+04          -2.603625D-03
4.905750D+03          -8.399109D-03
1.912746D+03          -2.434109D-02
7.926043D+02          -6.251948D-02
3.448065D+02          -1.365929D-01
1.558999D+02          -2.312707D-01
7.223091D+01          -2.383734D-01
3.272506D+01           3.123837D-02
1.566762D+01           5.086818D-01
7.503483D+00           4.987695D-01
3.312223D+00           9.033552D-02
1.558471D+00          -6.005337D-03
6.839140D-01           2.312454D-04
1.467570D-01          -5.643680D-04
7.058300D-02           4.992260D-04
3.144900D-02          -1.015293D-04
S   20   1.00
4.316265D+06           9.532178D-07
6.463424D+05           7.414605D-06
1.470897D+05           3.898393D-05
4.166152D+04           1.647152D-04
1.359077D+04           5.985980D-04
4.905750D+03           1.942390D-03
1.912746D+03           5.687237D-03
7.926043D+02           1.501329D-02
3.448065D+02           3.452455D-02
1.558999D+02           6.495820D-02
7.223091D+01           7.716194D-02
3.272506D+01          -1.873411D-02
1.566762D+01          -3.009185D-01
7.503483D+00          -4.554661D-01
3.312223D+00           1.286463D-01
1.558471D+00           7.183316D-01
6.839140D-01           4.051743D-01
1.467570D-01           2.168227D-02
7.058300D-02          -8.343566D-03
3.144900D-02           3.658979D-03
S   20   1.00
4.316265D+06          -2.063008D-07
6.463424D+05          -1.604169D-06
1.470897D+05          -8.438437D-06
4.166152D+04          -3.563151D-05
1.359077D+04          -1.295998D-04
4.905750D+03          -4.201534D-04
1.912746D+03          -1.231954D-03
7.926043D+02          -3.248922D-03
3.448065D+02          -7.493717D-03
1.558999D+02          -1.410102D-02
7.223091D+01          -1.691600D-02
3.272506D+01           4.218996D-03
1.566762D+01           6.833810D-02
7.503483D+00           1.098201D-01
3.312223D+00          -4.009005D-02
1.558471D+00          -2.174739D-01
6.839140D-01          -2.465135D-01
1.467570D-01           2.731435D-01
7.058300D-02           5.748321D-01
3.144900D-02           3.012713D-01
S   20   1.00
4.316265D+06          -4.009367D-07
6.463424D+05          -3.189255D-06
1.470897D+05          -1.623079D-05
4.166152D+04          -7.157920D-05
1.359077D+04          -2.463958D-04
4.905750D+03          -8.544907D-04
1.912746D+03          -2.307593D-03
7.926043D+02          -6.728292D-03
3.448065D+02          -1.366165D-02
1.558999D+02          -3.062240D-02
7.223091D+01          -2.631137D-02
3.272506D+01          -9.760183D-03
1.566762D+01           1.801906D-01
7.503483D+00           1.529634D-01
3.312223D+00           5.505413D-02
1.558471D+00          -9.551364D-01
6.839140D-01           2.586813D-01
1.467570D-01           1.834049D+00
7.058300D-02          -9.333240D-01
3.144900D-02          -6.981605D-01
S   1   1.00
3.144900D-02           1.000000D+00
P   16   1.00
1.774569D+04           4.100000D-05
4.200721D+03           3.690000D-04
1.364429D+03           2.129000D-03
5.220806D+02           9.369000D-03
2.214595D+02           3.309700D-02
1.009096D+02           9.443100D-02
4.840115D+01           2.080770D-01
2.398536D+01           3.323330D-01
1.218250D+01           3.329870D-01
6.242298D+00           1.568430D-01
3.110944D+00           2.154900D-02
1.509958D+00          -2.095000D-03
7.108450D-01          -1.739000D-03
2.731900D-01          -3.000000D-04
1.042330D-01           2.900000D-05
3.829100D-02          -1.100000D-05
P   16   1.00
1.774569D+04          -1.500000D-05
4.200721D+03          -1.300000D-04
1.364429D+03          -7.510000D-04
5.220806D+02          -3.329000D-03
2.214595D+02          -1.191200D-02
1.009096D+02          -3.493300D-02
4.840115D+01          -7.998900D-02
2.398536D+01          -1.346360D-01
1.218250D+01          -1.385980D-01
6.242298D+00           3.027800D-02
3.110944D+00           3.332160D-01
1.509958D+00           4.561530D-01
7.108450D-01           2.850510D-01
2.731900D-01           4.614400D-02
1.042330D-01          -3.249000D-03
3.829100D-02           1.357000D-03
P   16   1.00
1.774569D+04           5.000000D-06
4.200721D+03           4.200000D-05
1.364429D+03           2.410000D-04
5.220806D+02           1.085000D-03
2.214595D+02           3.831000D-03
1.009096D+02           1.142300D-02
4.840115D+01           2.579200D-02
2.398536D+01           4.481800D-02
1.218250D+01           4.459800D-02
6.242298D+00          -1.117700D-02
3.110944D+00          -1.381340D-01
1.509958D+00          -1.882850D-01
7.108450D-01          -1.073990D-01
2.731900D-01           4.448630D-01
1.042330D-01           6.402390D-01
3.829100D-02           6.445700D-02
P   16   1.00
1.774569D+04           3.000000D-06
4.200721D+03           2.900000D-05
1.364429D+03           1.650000D-04
5.220806D+02           7.340000D-04
2.214595D+02           2.626000D-03
1.009096D+02           7.725000D-03
4.840115D+01           1.773300D-02
2.398536D+01           3.005500D-02
1.218250D+01           3.109400D-02
6.242298D+00          -1.004800D-02
3.110944D+00          -8.830600D-02
1.509958D+00          -1.298240D-01
7.108450D-01          -7.693700D-02
2.731900D-01           2.126610D-01
1.042330D-01           5.730610D-01
3.829100D-02           3.696510D-01
P   1   1.00
3.829100D-02           1.000000D+00
D   8   1.00
1.133440D+02           3.530000D-03
3.364140D+01           2.578400D-02
1.233100D+01           9.911900D-02
4.994780D+00           2.390730D-01
2.072800D+00           3.571990D-01
8.307530D-01           3.621880D-01
3.091780D-01           2.364610D-01
1.001300D-01           6.011800D-02
D   8   1.00
1.133440D+02          -3.890000D-03
3.364140D+01          -2.844200D-02
1.233100D+01          -1.124290D-01
4.994780D+00          -2.742570D-01
2.072800D+00          -3.155460D-01
8.307530D-01           5.710900D-02
3.091780D-01           5.636040D-01
1.001300D-01           3.846370D-01
D   1   1.00
1.001300D-01           1.000000D+00
F   2   1.00
3.224300D+00           4.222490D-01
7.758000D-01           7.714680D-01
****
$end



--------------------------------------------------------------
 Adding empirical dispersion correction 
 ----------------------------------------------------------------
 Doing -D3(BJ) with
 s6  =   1.00000
 s8  =   1.98890
 a1  =   0.39810
 a2  =   4.42110
 -D3 energy without 3body term =     -0.1699569054 hartrees
 ----------------------------------------------------------------
             Standard Nuclear Orientation (Angstroms)
    I     Atom           X                Y                Z
 ----------------------------------------------------------------
    1      N      -2.4262102000     2.5604723000    -0.8388025000
    2      C      -4.3697264000    -2.3336989000    -0.1243507000
    3      H      -4.9163457000    -2.9093987000     0.6470413000
    4      N      -2.9499868000    -2.3379094000     0.2046549000
    5      H      -2.4124937000    -2.8745561000    -0.4769806000
    6      C      -4.5455961000    -3.0993934000    -1.4737688000
    7      O      -5.7154687000    -3.1484993000    -1.9280402000
    8      C      -2.4071864000    -1.9391830000     1.3721450000
    9      O      -3.0622167000    -1.3505365000     2.2496255000
   10      C      -2.0260630000     3.5569212000    -0.0511169000
   11      C      -2.8224130000     4.8326616000     0.0355603000
   12      H      -2.9682921000     5.2877820000    -0.9554896000
   13      H      -3.8154730000     4.6506223000     0.4749855000
   14      H      -2.2735848000     5.5343202000     0.6753001000
   15      C      -0.9430901000    -2.2984130000     1.5792450000
   16      H      -0.5813581000    -2.9897818000     0.8076472000
   17      H      -0.8907196000    -2.8071863000     2.5541622000
   18      C       0.0248566000    -1.0904764000     1.6136425000
   19      C      -0.4023025000    -0.0945765000     2.7302256000
   20      C       1.4595839000    -1.5656434000     1.9909156000
   21      H       1.4140664000    -2.2467807000     2.8538641000
   22      H       2.0406134000    -0.6806518000     2.2864484000
   23      C       2.1625088000    -2.2635353000     0.8394093000
   24      O       1.7302344000    -3.3027351000     0.3116678000
   25      N       3.2951585000    -1.6595203000     0.4289569000
   26      H       3.7112878000    -0.9028188000     0.9688634000
   27      C       5.5855270000    -1.5076207000    -0.4073526000
   28      O       6.4751314000    -1.8720256000    -1.2109804000
   29      N       2.3914871000     2.0758288000    -0.9324525000
   30      C       2.7142644000     2.1492393000     0.3542508000
   31      C       4.1437604000     2.3318265000     0.7774986000
   32      H       4.1514166000     2.7719598000     1.7833001000
   33      H       4.6598169000     1.3558948000     0.8110818000
   34      H       4.6994620000     2.9843751000     0.0899630000
   35      C       3.3172906000     1.9925213000    -2.0649954000
   36      H       2.7035038000     2.2093245000    -2.9495150000
   37      H       4.0716868000     2.7879089000    -1.9726642000
   38      C       3.9927289000     0.6221881000    -2.1631300000
   39      H       4.6786713000     0.6320796000    -3.0287325000
   40      H       4.6205966000     0.4922398000    -1.2721198000
   41      C       3.0007509000    -0.5398420000    -2.2649117000
   42      H       2.2018479000    -0.3838117000    -1.5239185000
   43      H       2.5126842000    -0.5208691000    -3.2557272000
   44      C       3.6132403000    -1.9260634000    -2.0320803000
   45      H       2.8324926000    -2.6821713000    -2.2133668000
   46      H       4.4345799000    -2.1257699000    -2.7395310000
   47      C       4.1798414000    -2.1519367000    -0.6100848000
   48      H       4.3115437000    -3.2410287000    -0.4841466000
   49      C      -4.6661962000     1.4818041000    -0.9598821000
   50      H      -4.7163975000     1.7087111000     0.1202045000
   51      H      -5.6686564000     1.6954810000    -1.3701588000
   52      C      -3.6718365000     2.4648034000    -1.5943758000
   53      H      -4.1047336000     3.4700505000    -1.6521166000
   54      H      -3.4091848000     2.1495764000    -2.6177236000
   55      C      -4.3069943000     0.0039695000    -1.1649159000
   56      H      -3.2225310000    -0.1024074000    -1.0432693000
   57      H      -4.5450688000    -0.2942986000    -2.2020456000
   58      C      -4.9985800000    -0.9313343000    -0.1757820000
   59      H      -4.9406598000    -0.4949368000     0.8330492000
   60      H      -6.0630384000    -1.0627410000    -0.4265266000
   61      O      -3.5035423000    -3.6032774000    -1.9812468000
   62      O       5.7053501000    -0.6821135000     0.5482107000
   63      O       0.0656825000    -0.4509090000     0.3732389000
   64      Fe     -0.0829581000     1.4589670000     0.3683627000
   65      O      -0.6582137000     1.1066293000     2.3136245000
   66      O      -1.6709869000     1.4268675000    -0.8297078000
   67      O      -0.9580370000     3.4058589000     0.6257068000
   68      O       1.0734615000     1.8875961000    -1.2350858000
   69      O      -0.4246347000    -0.4524129000     3.9146550000
   70      O       1.7841578000     2.0491767000     1.2237764000
 ----------------------------------------------------------------
 Nuclear Repulsion Energy =        6061.29520771 hartrees
 There are      163 alpha and      160 beta electrons
 Requested basis set is non-standard
 There are 339 shells and 739 basis functions

 Total QAlloc Memory Limit  30000 MB
 Mega-Array Size       188 MB
 MEM_STATIC part       192 MB

 -----------------------------------------------------------------------
                STARTING GEOMETRY OPTIMIZER USING LIBOPT3
                by Peter F. McLaughlin, Yu Zhang, Evgeny Epifanovsky
 -----------------------------------------------------------------------

              Initial Energy and Gradient Calculation
   -- Checking Topology for Ill-Behaving Coordinates --

 -------------------------------------------
   Coordinate       |  Removed | Additions 
 -------------------------------------------
	Bonds                     0          0
	Angles                    0          0
	Torsions                  0          0
	Co-Linear Type5s          0          0
	Co-Linear Type6s          0          0
 -------------------------------------------
     Done Checking Topology
 Adding empirical dispersion correction 
 ----------------------------------------------------------------
 Doing -D3(BJ) with
 s6  =   1.00000
 s8  =   1.98890
 a1  =   0.39810
 a2  =   4.42110
 -D3 energy without 3body term =     -0.1699569054 hartrees
 ----------------------------------------------------------------
             Standard Nuclear Orientation (Angstroms)
    I     Atom           X                Y                Z
 ----------------------------------------------------------------
    1      N      -2.4262102000     2.5604723000    -0.8388025000
    2      C      -4.3697264000    -2.3336989000    -0.1243507000
    3      H      -4.9163457000    -2.9093987000     0.6470413000
    4      N      -2.9499868000    -2.3379094000     0.2046549000
    5      H      -2.4124937000    -2.8745561000    -0.4769806000
    6      C      -4.5455961000    -3.0993934000    -1.4737688000
    7      O      -5.7154687000    -3.1484993000    -1.9280402000
    8      C      -2.4071864000    -1.9391830000     1.3721450000
    9      O      -3.0622167000    -1.3505365000     2.2496255000
   10      C      -2.0260630000     3.5569212000    -0.0511169000
   11      C      -2.8224130000     4.8326616000     0.0355603000
   12      H      -2.9682921000     5.2877820000    -0.9554896000
   13      H      -3.8154730000     4.6506223000     0.4749855000
   14      H      -2.2735848000     5.5343202000     0.6753001000
   15      C      -0.9430901000    -2.2984130000     1.5792450000
   16      H      -0.5813581000    -2.9897818000     0.8076472000
   17      H      -0.8907196000    -2.8071863000     2.5541622000
   18      C       0.0248566000    -1.0904764000     1.6136425000
   19      C      -0.4023025000    -0.0945765000     2.7302256000
   20      C       1.4595839000    -1.5656434000     1.9909156000
   21      H       1.4140664000    -2.2467807000     2.8538641000
   22      H       2.0406134000    -0.6806518000     2.2864484000
   23      C       2.1625088000    -2.2635353000     0.8394093000
   24      O       1.7302344000    -3.3027351000     0.3116678000
   25      N       3.2951585000    -1.6595203000     0.4289569000
   26      H       3.7112878000    -0.9028188000     0.9688634000
   27      C       5.5855270000    -1.5076207000    -0.4073526000
   28      O       6.4751314000    -1.8720256000    -1.2109804000
   29      N       2.3914871000     2.0758288000    -0.9324525000
   30      C       2.7142644000     2.1492393000     0.3542508000
   31      C       4.1437604000     2.3318265000     0.7774986000
   32      H       4.1514166000     2.7719598000     1.7833001000
   33      H       4.6598169000     1.3558948000     0.8110818000
   34      H       4.6994620000     2.9843751000     0.0899630000
   35      C       3.3172906000     1.9925213000    -2.0649954000
   36      H       2.7035038000     2.2093245000    -2.9495150000
   37      H       4.0716868000     2.7879089000    -1.9726642000
   38      C       3.9927289000     0.6221881000    -2.1631300000
   39      H       4.6786713000     0.6320796000    -3.0287325000
   40      H       4.6205966000     0.4922398000    -1.2721198000
   41      C       3.0007509000    -0.5398420000    -2.2649117000
   42      H       2.2018479000    -0.3838117000    -1.5239185000
   43      H       2.5126842000    -0.5208691000    -3.2557272000
   44      C       3.6132403000    -1.9260634000    -2.0320803000
   45      H       2.8324926000    -2.6821713000    -2.2133668000
   46      H       4.4345799000    -2.1257699000    -2.7395310000
   47      C       4.1798414000    -2.1519367000    -0.6100848000
   48      H       4.3115437000    -3.2410287000    -0.4841466000
   49      C      -4.6661962000     1.4818041000    -0.9598821000
   50      H      -4.7163975000     1.7087111000     0.1202045000
   51      H      -5.6686564000     1.6954810000    -1.3701588000
   52      C      -3.6718365000     2.4648034000    -1.5943758000
   53      H      -4.1047336000     3.4700505000    -1.6521166000
   54      H      -3.4091848000     2.1495764000    -2.6177236000
   55      C      -4.3069943000     0.0039695000    -1.1649159000
   56      H      -3.2225310000    -0.1024074000    -1.0432693000
   57      H      -4.5450688000    -0.2942986000    -2.2020456000
   58      C      -4.9985800000    -0.9313343000    -0.1757820000
   59      H      -4.9406598000    -0.4949368000     0.8330492000
   60      H      -6.0630384000    -1.0627410000    -0.4265266000
   61      O      -3.5035423000    -3.6032774000    -1.9812468000
   62      O       5.7053501000    -0.6821135000     0.5482107000
   63      O       0.0656825000    -0.4509090000     0.3732389000
   64      Fe     -0.0829581000     1.4589670000     0.3683627000
   65      O      -0.6582137000     1.1066293000     2.3136245000
   66      O      -1.6709869000     1.4268675000    -0.8297078000
   67      O      -0.9580370000     3.4058589000     0.6257068000
   68      O       1.0734615000     1.8875961000    -1.2350858000
   69      O      -0.4246347000    -0.4524129000     3.9146550000
   70      O       1.7841578000     2.0491767000     1.2237764000
 ----------------------------------------------------------------
 Nuclear Repulsion Energy =        6061.29520771 hartrees
 There are      163 alpha and      160 beta electrons
 Using C-PCM dielectric factor f(eps) = (eps-1)/eps = 0.987243
No default van der Waals radius is available for Z = 26
	Found R = 2.4400 A in the $van_der_waals section
 Discretize the solute cavity surface with Lebedev spheres
	Using 110 Lebedev grid points for each H atom
	Using 194 Lebedev grid points for other atoms
	Atomic van der Waals radii (Bondi set) will be scaled by 1.20
 Using smooth SwiG surface discretization
 Remove points where switching function is < 1.0e-08
 Keep 4103 surface tesserae and discard 6957 interior tesserae
 Molecular Surface Area = 526.408 Angst**2

 Requested basis set is non-standard
 There are 339 shells and 739 basis functions
 A cutoff of  1.0D-12 yielded  45085 shell pairs
 There are    196217 function pairs (    217704 Cartesian)
 Smallest overlap matrix eigenvalue = 2.93E-04

 Scale SEOQF with 1.000000e-02/1.000000e-02/1.000000e-01

 Standard Electronic Orientation quadrupole field applied
 Nucleus-field energy     =    -0.0000000522 hartrees
 ================ Generating on-the-fly SAD Guess ================
 Attempting to make child job directory: /scratch/qchem_scratch/qchem13447//Frg1/
 Attempting to make child job directory: /scratch/qchem_scratch/qchem13447//Frg2/
 Attempting to make child job directory: /scratch/qchem_scratch/qchem13447//Frg3/
 Attempting to make child job directory: /scratch/qchem_scratch/qchem13447//Frg4/
 Attempting to make child job directory: /scratch/qchem_scratch/qchem13447//Frg5/
 Creating input file /scratch/qchem_scratch/qchem13447/Frg1.input
 using default PutDataFrgm: nothing
 calling putenv with: QCSCRATCH=/scratch/qchem_scratch/qchem13447/ 
 Spawning Job For Fragment 0
 Done Job For Fragment 0
 calling putenv with: QCSCRATCH=/scratch/qchem_scratch 
 calling putenv with: QCTHREADS=16 
 Creating input file /scratch/qchem_scratch/qchem13447/Frg2.input
 using default PutDataFrgm: nothing
 calling putenv with: QCSCRATCH=/scratch/qchem_scratch/qchem13447/ 
 Spawning Job For Fragment 1
 Done Job For Fragment 1
 calling putenv with: QCSCRATCH=/scratch/qchem_scratch 
 calling putenv with: QCTHREADS=16 
 Creating input file /scratch/qchem_scratch/qchem13447/Frg3.input
 using default PutDataFrgm: nothing
 calling putenv with: QCSCRATCH=/scratch/qchem_scratch/qchem13447/ 
 Spawning Job For Fragment 2
 Done Job For Fragment 2
 calling putenv with: QCSCRATCH=/scratch/qchem_scratch 
 calling putenv with: QCTHREADS=16 
 Creating input file /scratch/qchem_scratch/qchem13447/Frg4.input
 using default PutDataFrgm: nothing
 calling putenv with: QCSCRATCH=/scratch/qchem_scratch/qchem13447/ 
 Spawning Job For Fragment 3
 Done Job For Fragment 3
 calling putenv with: QCSCRATCH=/scratch/qchem_scratch 
 calling putenv with: QCTHREADS=16 
 Creating input file /scratch/qchem_scratch/qchem13447/Frg5.input
 using default PutDataFrgm: nothing
 calling putenv with: QCSCRATCH=/scratch/qchem_scratch/qchem13447/ 
 Spawning Job For Fragment 4
 Done Job For Fragment 4
 calling putenv with: QCSCRATCH=/scratch/qchem_scratch 
 calling putenv with: QCTHREADS=16 
 Time for running child jobs:  CPU 0.02 s  wall 64.95 s
 ============= Method Specific SAD Guess Constructed =============
 Guess from on-the-fly superposition of atomic densities
 Warning: Energy on first SCF cycle will be non-variational

 -----------------------------------------------------------------------
  General SCF calculation program by
  Eric Jon Sundstrom, Paul Horn, Yuezhi Mao, Dmitri Zuev, Alec White,
  David Stuck, Shaama M.S., Shane Yost, Joonho Lee, David Small,
  Daniel Levine, Susi Lehtola, Hugh Burton, Evgeny Epifanovsky,
  Bang C. Huynh
 -----------------------------------------------------------------------
 Exchange:     0.2000 Hartree-Fock + 0.0800 Slater + 0.7200 B88
 Correlation:  0.1900 VWN1RPA + 0.8100 LYP
 Using SG-1 standard quadrature grid
 Dispersion:   Grimme D3
 using 16 threads for integral computing
 -------------------------------------------------------
 OpenMP Integral computing Module                
 Release: version 1.0, May 2013, Q-Chem Inc. Pittsburgh 
 -------------------------------------------------------
 C-PCM solvent model [f = (eps-1)/eps], solve by matrix inversion
 A unrestricted SCF calculation will be
 performed using DIIS
 SCF converges when DIIS error is below 1.0e-08
 ---------------------------------------
  Cycle       Energy         DIIS error
 ---------------------------------------
    1   -3332.2380168154      1.59e-02  
    2   -3316.7789229612      2.15e-03  
    3   -3315.7101407024      3.25e-03  
    4   -3317.8661673612      6.63e-04  
    5   -3317.9466325546      3.72e-04  
    6   -3317.9504220010      3.71e-04  
    7   -3317.9731412198      1.30e-04  
    8   -3317.9768018719      3.92e-05  
    9   -3317.9774428894      2.00e-05  
   10   -3317.9777223778      1.16e-05  
   11   -3317.9778898294      7.54e-06  
   12   -3317.9780249047      5.85e-06  
   13   -3317.9781551652      4.69e-06  
   14   -3317.9782423422      3.79e-06  
   15   -3317.9783221909      3.22e-06  
   16   -3317.9783842072      2.88e-06  
   17   -3317.9784495778      2.57e-06  
   18   -3317.9785080300      2.13e-06  
   19   -3317.9785409336      1.74e-06  
   20   -3317.9785731646      1.65e-06  
   21   -3317.9785956239      1.40e-06  
   22   -3317.9786256348      1.25e-06  
   23   -3317.9786386035      9.21e-07  
   24   -3317.9786461579      8.44e-07  
   25   -3317.9786518980      6.21e-07  
   26   -3317.9786547562      6.31e-07  
   27   -3317.9786573585      4.87e-07  
   28   -3317.9786583344      4.45e-07  
   29   -3317.9786595180      4.21e-07  
   30   -3317.9786612110      4.01e-07  
   31   -3317.9786643645      4.00e-07  
   32   -3317.9786666194      2.93e-07  
   33   -3317.9786681797      2.58e-07  
   34   -3317.9786692254      1.85e-07  
   35   -3317.9786697628      1.56e-07  
   36   -3317.9786700710      1.16e-07  
   37   -3317.9786701452      9.67e-08  
   38   -3317.9786702381      6.61e-08  
   39   -3317.9786702731      5.47e-08  
   40   -3317.9786702878      3.58e-08  
   41   -3317.9786702965      2.79e-08  
   42   -3317.9786702992      1.95e-08  
   43   -3317.9786703018      1.45e-08  
   44   -3317.9786703026      1.11e-08  
   45   -3317.9786703034      1.01e-08  
   46   -3317.9786703042      5.83e-09  Convergence criterion met
 ---------------------------------------
 SCF time:   CPU 74768.90s  wall 5414.00s 
<S^2> =          3.972786593

************** Final PCM Free Energy Summary **************
 G_electrostatic  =      -0.52254581 hartree =    -327.90244210 kcal/mol
 G_cavitation     =       0.00000000 hartree =       0.00000000 kcal/mol
 G_dispersion     =       0.00000000 hartree =       0.00000000 kcal/mol
 G_repulsion      =       0.00000000 hartree =       0.00000000 kcal/mol
 --------------------------------------------------
 Non-electrostatic Free Energy =       0.00000000 hartree =       0.00000000 kcal/mol
 Total                         =      -0.52254581 hartree =    -327.90244210 kcal/mol
 --------------------------------------------------
 SCF Energy (H0 + V/2)                       =   -3317.97867030 
 Solute Internal Energy (H0)                 =   -3317.45612450 
 Total Free Energy (H0 + V/2 + non-elec)     =   -3317.97867030 hartree
                                             = -2082063.04019189 kcal/mol
***********************************************************

 SCF   energy in the final basis set =    -3317.9786703042
 Total energy in the final basis set =    -3317.9786703042
 
 --------------------------------------------------------------
 
                    Orbital Energies (a.u.)
 --------------------------------------------------------------
 
 Alpha MOs
 -- Occupied --
******** -30.0698 -25.9383 -25.9234 -25.9127 -19.1239 -19.1153 -19.1148
-19.1132 -19.1033 -19.0983 -19.0895 -19.0865 -19.0832 -19.0632 -19.0585
-19.0569 -19.0518 -14.3984 -14.3972 -14.3263 -14.3244 -10.2778 -10.2718
-10.2670 -10.2668 -10.2648 -10.2493 -10.2451 -10.2243 -10.2169 -10.2150
-10.1964 -10.1949 -10.1897 -10.1804 -10.1759 -10.1731 -10.1710 -10.1702
-10.1666 -10.1641 -10.1610 -10.1576  -3.5259  -2.3326  -2.2888  -2.2736
 -1.0709  -1.0662  -1.0313  -1.0134  -1.0101  -1.0014  -0.9997  -0.9972
 -0.9938  -0.9575  -0.9376  -0.9173  -0.9130  -0.8967  -0.8923  -0.8446
 -0.8415  -0.7856  -0.7841  -0.7621  -0.7483  -0.7390  -0.7209  -0.7142
 -0.7039  -0.6811  -0.6697  -0.6331  -0.6222  -0.6020  -0.5803  -0.5770
 -0.5458  -0.5411  -0.5368  -0.5258  -0.5183  -0.5102  -0.5024  -0.4944
 -0.4914  -0.4879  -0.4837  -0.4727  -0.4680  -0.4628  -0.4599  -0.4557
 -0.4528  -0.4483  -0.4381  -0.4369  -0.4339  -0.4279  -0.4234  -0.4226
 -0.4181  -0.4158  -0.4082  -0.4079  -0.4022  -0.3992  -0.3970  -0.3940
 -0.3931  -0.3902  -0.3889  -0.3847  -0.3823  -0.3794  -0.3762  -0.3743
 -0.3683  -0.3673  -0.3649  -0.3602  -0.3581  -0.3577  -0.3514  -0.3478
 -0.3451  -0.3438  -0.3398  -0.3369  -0.3341  -0.3240  -0.3195  -0.3186
 -0.3161  -0.3151  -0.3091  -0.3074  -0.3052  -0.3016  -0.2967  -0.2804
 -0.2721  -0.2631  -0.2615  -0.2506  -0.2428  -0.2415  -0.2376  -0.2312
 -0.2282  -0.2268  -0.2219  -0.2192  -0.2162  -0.2156  -0.2088  -0.2059
 -0.2032  -0.1919  -0.1912
 -- Virtual --
 -0.0954   0.0239   0.0289   0.0307   0.0353   0.0403   0.0599   0.0618
  0.0680   0.0689   0.0758   0.0812   0.0888   0.0914   0.0976   0.1016
  0.1106   0.1141   0.1148   0.1174   0.1197   0.1227   0.1253   0.1315
  0.1373   0.1396   0.1411   0.1480   0.1539   0.1592   0.1632   0.1656
  0.1662   0.1690   0.1754   0.1772   0.1841   0.1869   0.1912   0.1953
  0.1967   0.2018   0.2055   0.2112   0.2123   0.2138   0.2222   0.2304
  0.2319   0.2338   0.2433   0.2481   0.2525   0.2572   0.2597   0.2633
  0.2694   0.2715   0.2724   0.2730   0.2773   0.2841   0.2941   0.2965
  0.2984   0.3021   0.3100   0.3233   0.3301   0.3320   0.3413   0.3441
  0.3607   0.3637   0.3764   0.3773   0.3843   0.3899   0.3922   0.4020
  0.4096   0.4113   0.4193   0.4253   0.4318   0.4336   0.4395   0.4468
  0.4488   0.4502   0.4548   0.4665   0.4697   0.4764   0.4810   0.4852
  0.4856   0.4944   0.4946   0.4969   0.5091   0.5123   0.5196   0.5256
  0.5306   0.5348   0.5391   0.5451   0.5490   0.5525   0.5553   0.5596
  0.5644   0.5664   0.5680   0.5757   0.5811   0.5840   0.5883   0.5916
  0.5990   0.5996   0.6056   0.6080   0.6115   0.6128   0.6177   0.6209
  0.6232   0.6249   0.6272   0.6339   0.6378   0.6407   0.6415   0.6445
  0.6464   0.6481   0.6558   0.6604   0.6612   0.6622   0.6654   0.6693
  0.6704   0.6739   0.6760   0.6804   0.6808   0.6834   0.6888   0.6924
  0.6935   0.6955   0.7018   0.7029   0.7051   0.7108   0.7136   0.7207
  0.7224   0.7252   0.7298   0.7334   0.7366   0.7421   0.7463   0.7488
  0.7612   0.7649   0.7706   0.7757   0.7797   0.7823   0.7856   0.7938
  0.7990   0.8046   0.8095   0.8134   0.8153   0.8207   0.8260   0.8369
  0.8449   0.8562   0.8603   0.8652   0.8817   0.8834   0.8942   0.8964
  0.9054   0.9071   0.9154   0.9216   0.9263   0.9289   0.9359   0.9519
  0.9530   0.9639   0.9724   0.9788   0.9906   0.9977   1.0033   1.0152
  1.0276   1.0299   1.0355   1.0407   1.0526   1.0550   1.0651   1.0695
  1.0718   1.0769   1.0850   1.0916   1.0983   1.1012   1.1020   1.1074
  1.1132   1.1241   1.1285   1.1319   1.1406   1.1443   1.1498   1.1561
  1.1586   1.1649   1.1678   1.1742   1.1799   1.1804   1.1882   1.1911
  1.1931   1.2006   1.2046   1.2126   1.2172   1.2261   1.2312   1.2348
  1.2401   1.2414   1.2501   1.2586   1.2607   1.2667   1.2693   1.2762
  1.2801   1.2883   1.2929   1.2985   1.2996   1.3062   1.3109   1.3187
  1.3254   1.3296   1.3398   1.3449   1.3470   1.3511   1.3648   1.3657
  1.3740   1.3760   1.3834   1.3935   1.3993   1.4016   1.4065   1.4107
  1.4174   1.4270   1.4346   1.4402   1.4438   1.4467   1.4555   1.4615
  1.4654   1.4740   1.4827   1.4940   1.5005   1.5070   1.5178   1.5249
  1.5262   1.5350   1.5411   1.5423   1.5521   1.5581   1.5622   1.5645
  1.5738   1.5783   1.5878   1.5888   1.5913   1.5961   1.6051   1.6106
  1.6191   1.6208   1.6240   1.6304   1.6326   1.6354   1.6383   1.6411
  1.6438   1.6515   1.6551   1.6560   1.6583   1.6615   1.6749   1.6789
  1.6807   1.6842   1.6874   1.6887   1.6963   1.6986   1.7025   1.7050
  1.7102   1.7152   1.7179   1.7213   1.7266   1.7303   1.7325   1.7354
  1.7409   1.7444   1.7499   1.7518   1.7573   1.7608   1.7621   1.7652
  1.7695   1.7743   1.7833   1.7879   1.7909   1.7966   1.8011   1.8079
  1.8100   1.8125   1.8182   1.8219   1.8246   1.8270   1.8329   1.8383
  1.8398   1.8424   1.8476   1.8520   1.8567   1.8620   1.8688   1.8753
  1.8803   1.8839   1.8949   1.8968   1.9004   1.9044   1.9095   1.9168
  1.9180   1.9311   1.9415   1.9454   1.9550   1.9560   1.9618   1.9641
  1.9783   1.9836   1.9885   1.9917   1.9977   2.0006   2.0096   2.0166
  2.0236   2.0299   2.0418   2.0470   2.0529   2.0581   2.0599   2.0650
  2.0746   2.0838   2.0883   2.0926   2.1017   2.1100   2.1175   2.1192
  2.1280   2.1374   2.1394   2.1469   2.1523   2.1629   2.1702   2.1728
  2.1785   2.1822   2.1872   2.1939   2.1990   2.2026   2.2159   2.2226
  2.2266   2.2304   2.2317   2.2406   2.2503   2.2543   2.2689   2.2733
  2.2777   2.2862   2.2918   2.2961   2.3028   2.3064   2.3109   2.3167
  2.3325   2.3374   2.3405   2.3441   2.3504   2.3510   2.3651   2.3699
  2.3778   2.3901   2.4007   2.4061   2.4093   2.4189   2.4277   2.4378
  2.4411   2.4451   2.4638   2.4744   2.4749   2.4832   2.4936   2.4966
  2.5041   2.5072   2.5159   2.5194   2.5230   2.5258   2.5385   2.5431
  2.5646   2.5682   2.5756   2.5779   2.5900   2.5960   2.6025   2.6119
  2.6256   2.6453   2.6531   2.6718   2.6762   2.6772   2.6800   2.6888
  2.7008   2.7061   2.7070   2.7112   2.7130   2.7153   2.7197   2.7277
  2.7357   2.7384   2.7422   2.7479   2.7556   2.7585   2.7638   2.7682
  2.7773   2.7787   2.7843   2.7883   2.7923   2.7955   2.7994   2.8127
  2.8238   2.8262   2.8694   2.8998   2.9165   2.9176   2.9237   2.9488
  2.9520   2.9775   2.9962   3.0105   3.0129   3.0147   3.0456   3.0650
  3.0682   3.0897   3.1004   3.1109   3.1145   3.1174   3.1426   3.1467
  3.1579   3.2095   3.2133   3.2161   3.2180   3.2410   3.2435   3.2447
  3.2634   3.4093   3.4107   3.4131   3.4184   3.4242   3.4330   3.4418
  3.4441   3.4676   3.4743   3.4835   3.5015   3.5188   3.5221   3.5329
  3.5399   3.5699   3.5810   3.5875   3.6194   3.6428   3.7403   3.7715
 
 Beta MOs
 -- Occupied --
******** -30.0079 -25.8830 -25.8719 -25.8651 -19.1234 -19.1132 -19.1126
-19.1093 -19.1026 -19.1007 -19.0895 -19.0865 -19.0836 -19.0632 -19.0585
-19.0569 -19.0518 -14.3983 -14.3971 -14.3263 -14.3244 -10.2778 -10.2720
-10.2670 -10.2670 -10.2647 -10.2493 -10.2451 -10.2242 -10.2168 -10.2150
-10.1964 -10.1949 -10.1897 -10.1803 -10.1759 -10.1730 -10.1710 -10.1703
-10.1666 -10.1641 -10.1610 -10.1576  -3.3795  -2.1679  -2.1402  -2.1245
 -1.0682  -1.0639  -1.0313  -1.0135  -1.0101  -1.0014  -0.9973  -0.9972
 -0.9901  -0.9616  -0.9380  -0.9173  -0.9130  -0.8967  -0.8923  -0.8421
 -0.8385  -0.7855  -0.7839  -0.7627  -0.7481  -0.7390  -0.7204  -0.7137
 -0.7036  -0.6810  -0.6696  -0.6330  -0.6219  -0.6023  -0.5799  -0.5769
 -0.5456  -0.5409  -0.5344  -0.5232  -0.5183  -0.5096  -0.5011  -0.4933
 -0.4890  -0.4862  -0.4817  -0.4710  -0.4672  -0.4616  -0.4588  -0.4552
 -0.4526  -0.4477  -0.4378  -0.4367  -0.4329  -0.4276  -0.4225  -0.4220
 -0.4170  -0.4150  -0.4075  -0.4043  -0.4009  -0.3978  -0.3948  -0.3922
 -0.3914  -0.3894  -0.3879  -0.3828  -0.3815  -0.3763  -0.3753  -0.3728
 -0.3669  -0.3645  -0.3627  -0.3591  -0.3560  -0.3539  -0.3476  -0.3446
 -0.3395  -0.3357  -0.3234  -0.3195  -0.3182  -0.3172  -0.3140  -0.3102
 -0.3052  -0.3033  -0.3019  -0.2905  -0.2853  -0.2772  -0.2684  -0.2666
 -0.2586  -0.2468  -0.2416  -0.2394  -0.2373  -0.2341  -0.2279  -0.2248
 -0.2215  -0.2192  -0.2158  -0.2090  -0.2070  -0.2057  -0.1931  -0.1872
 -- Virtual --
 -0.0452  -0.0399  -0.0032   0.0044   0.0271   0.0306   0.0316   0.0357
  0.0410   0.0603   0.0621   0.0685   0.0693   0.0760   0.0813   0.0890
  0.0916   0.0980   0.1019   0.1109   0.1146   0.1151   0.1177   0.1203
  0.1229   0.1256   0.1316   0.1375   0.1397   0.1413   0.1484   0.1545
  0.1594   0.1633   0.1658   0.1663   0.1694   0.1762   0.1782   0.1847
  0.1873   0.1914   0.1958   0.1972   0.2020   0.2062   0.2115   0.2125
  0.2149   0.2224   0.2313   0.2329   0.2348   0.2454   0.2487   0.2530
  0.2579   0.2600   0.2645   0.2700   0.2718   0.2735   0.2753   0.2800
  0.2855   0.2946   0.2969   0.3015   0.3038   0.3108   0.3238   0.3332
  0.3391   0.3436   0.3480   0.3629   0.3667   0.3779   0.3788   0.3856
  0.3917   0.3936   0.4031   0.4105   0.4134   0.4207   0.4267   0.4321
  0.4340   0.4410   0.4470   0.4493   0.4503   0.4551   0.4672   0.4706
  0.4769   0.4817   0.4857   0.4865   0.4948   0.4956   0.4971   0.5095
  0.5132   0.5207   0.5267   0.5314   0.5350   0.5395   0.5453   0.5500
  0.5529   0.5559   0.5597   0.5649   0.5669   0.5683   0.5761   0.5818
  0.5845   0.5885   0.5920   0.5994   0.5998   0.6060   0.6082   0.6120
  0.6134   0.6178   0.6212   0.6235   0.6254   0.6278   0.6342   0.6385
  0.6410   0.6418   0.6453   0.6469   0.6488   0.6564   0.6606   0.6616
  0.6623   0.6658   0.6698   0.6707   0.6748   0.6762   0.6806   0.6816
  0.6838   0.6894   0.6930   0.6940   0.6958   0.7020   0.7031   0.7057
  0.7113   0.7142   0.7210   0.7228   0.7258   0.7303   0.7353   0.7374
  0.7425   0.7467   0.7500   0.7616   0.7658   0.7710   0.7783   0.7818
  0.7833   0.7869   0.7950   0.8000   0.8063   0.8106   0.8145   0.8168
  0.8249   0.8279   0.8408   0.8465   0.8591   0.8638   0.8656   0.8835
  0.8886   0.8948   0.8998   0.9079   0.9100   0.9174   0.9237   0.9272
  0.9310   0.9376   0.9534   0.9555   0.9666   0.9737   0.9794   0.9932
  0.9993   1.0059   1.0168   1.0293   1.0318   1.0367   1.0413   1.0532
  1.0572   1.0659   1.0707   1.0728   1.0783   1.0870   1.0928   1.0999
  1.1026   1.1039   1.1082   1.1136   1.1251   1.1306   1.1317   1.1411
  1.1451   1.1507   1.1572   1.1589   1.1656   1.1691   1.1753   1.1802
  1.1822   1.1887   1.1927   1.1938   1.2015   1.2060   1.2147   1.2176
  1.2268   1.2328   1.2354   1.2405   1.2425   1.2511   1.2611   1.2634
  1.2683   1.2739   1.2769   1.2819   1.2905   1.2938   1.2999   1.3014
  1.3076   1.3121   1.3204   1.3266   1.3313   1.3422   1.3482   1.3498
  1.3522   1.3661   1.3702   1.3757   1.3800   1.3840   1.3958   1.4020
  1.4049   1.4080   1.4122   1.4184   1.4357   1.4386   1.4440   1.4466
  1.4477   1.4616   1.4666   1.4706   1.4784   1.4845   1.4991   1.5024
  1.5122   1.5210   1.5278   1.5324   1.5417   1.5442   1.5522   1.5556
  1.5606   1.5636   1.5661   1.5752   1.5796   1.5891   1.5908   1.5927
  1.6020   1.6122   1.6153   1.6224   1.6234   1.6251   1.6322   1.6336
  1.6367   1.6388   1.6446   1.6462   1.6527   1.6569   1.6598   1.6621
  1.6631   1.6779   1.6795   1.6816   1.6857   1.6890   1.6909   1.6967
  1.6995   1.7037   1.7071   1.7132   1.7179   1.7192   1.7217   1.7279
  1.7316   1.7339   1.7374   1.7426   1.7464   1.7508   1.7533   1.7578
  1.7614   1.7645   1.7676   1.7727   1.7759   1.7836   1.7887   1.7917
  1.7990   1.8026   1.8084   1.8109   1.8130   1.8192   1.8240   1.8268
  1.8277   1.8345   1.8403   1.8407   1.8451   1.8483   1.8542   1.8573
  1.8632   1.8708   1.8794   1.8809   1.8872   1.8959   1.9008   1.9012
  1.9052   1.9107   1.9176   1.9185   1.9345   1.9426   1.9471   1.9559
  1.9609   1.9642   1.9654   1.9809   1.9850   1.9891   1.9926   1.9994
  2.0019   2.0110   2.0183   2.0271   2.0320   2.0449   2.0492   2.0541
  2.0601   2.0607   2.0657   2.0787   2.0848   2.0890   2.0950   2.1032
  2.1110   2.1190   2.1209   2.1291   2.1378   2.1401   2.1475   2.1532
  2.1633   2.1720   2.1737   2.1799   2.1829   2.1878   2.1943   2.1994
  2.2033   2.2161   2.2234   2.2294   2.2316   2.2344   2.2408   2.2522
  2.2556   2.2697   2.2739   2.2787   2.2876   2.2931   2.2977   2.3049
  2.3071   2.3115   2.3178   2.3339   2.3379   2.3428   2.3464   2.3508
  2.3517   2.3679   2.3705   2.3783   2.3918   2.4013   2.4071   2.4117
  2.4203   2.4282   2.4382   2.4417   2.4461   2.4645   2.4751   2.4758
  2.4843   2.4942   2.4977   2.5048   2.5078   2.5175   2.5204   2.5233
  2.5297   2.5387   2.5439   2.5657   2.5687   2.5771   2.5789   2.5909
  2.5966   2.6031   2.6130   2.6277   2.6459   2.6552   2.6724   2.6765
  2.6788   2.6804   2.6930   2.7035   2.7075   2.7129   2.7143   2.7160
  2.7173   2.7223   2.7288   2.7371   2.7403   2.7475   2.7485   2.7573
  2.7615   2.7658   2.7692   2.7795   2.7806   2.7875   2.7914   2.7942
  2.7971   2.8023   2.8142   2.8248   2.8275   2.8755   2.9070   2.9179
  2.9218   2.9273   2.9533   2.9551   2.9801   3.0126   3.0145   3.0228
  3.0350   3.0639   3.0858   3.0965   3.1033   3.1115   3.1173   3.1185
  3.1306   3.1430   3.1484   3.2078   3.2150   3.2168   3.2191   3.2319
  3.2428   3.2444   3.2968   3.3278   3.4094   3.4130   3.4194   3.4229
  3.4248   3.4399   3.4419   3.4637   3.4733   3.4821   3.4978   3.5066
  3.5207   3.5235   3.5379   3.5724   3.5811   3.5875   3.6168   3.6342
  3.6929   3.7453   3.7784
 --------------------------------------------------------------
 
          Ground-State Mulliken Net Atomic Charges

     Atom                 Charge (a.u.)    Spin (a.u.)
  --------------------------------------------------------
      1 N                    -0.025068       0.003070
      2 C                    -0.014725       0.000028
      3 H                    -0.010204       0.000002
      4 N                    -0.092129      -0.000128
      5 H                     0.076174       0.000005
      6 C                     0.093102       0.000000
      7 O                    -0.449757      -0.000001
      8 C                     0.132123       0.000658
      9 O                    -0.374621      -0.000569
     10 C                     0.122362       0.001883
     11 C                     0.020815      -0.000610
     12 H                     0.069829      -0.000478
     13 H                     0.068105       0.000178
     14 H                     0.043456      -0.000004
     15 C                     0.134114      -0.005990
     16 H                    -0.004073       0.000387
     17 H                     0.008717      -0.000710
     18 C                    -0.069983       0.012259
     19 C                     0.215457      -0.003649
     20 C                     0.117997       0.003563
     21 H                     0.013130       0.000786
     22 H                     0.005007       0.000587
     23 C                     0.140525       0.000212
     24 O                    -0.373733      -0.000299
     25 N                    -0.088111      -0.000058
     26 H                     0.097484      -0.000072
     27 C                     0.107458       0.000005
     28 O                    -0.435294       0.000006
     29 N                    -0.024555       0.004685
     30 C                     0.116727      -0.005368
     31 C                     0.002483       0.003458
     32 H                     0.038245       0.000197
     33 H                     0.070340      -0.000130
     34 H                     0.048301      -0.000158
     35 C                     0.140520       0.000974
     36 H                     0.024998       0.000289
     37 H                     0.034294      -0.000180
     38 C                    -0.036845       0.000536
     39 H                     0.002361       0.000431
     40 H                     0.022334       0.000023
     41 C                    -0.042429      -0.000210
     42 H                     0.073700       0.000972
     43 H                    -0.008301      -0.000011
     44 C                     0.049030       0.000036
     45 H                    -0.014129       0.000003
     46 H                    -0.018002       0.000001
     47 C                    -0.010236      -0.000000
     48 H                    -0.008725      -0.000005
     49 C                    -0.002554      -0.000221
     50 H                     0.010601       0.000049
     51 H                     0.010679      -0.000024
     52 C                     0.131766       0.002210
     53 H                     0.030862       0.001284
     54 H                     0.025362       0.000662
     55 C                    -0.031634       0.000751
     56 H                     0.035005       0.000358
     57 H                    -0.008554       0.000033
     58 C                     0.052324      -0.000005
     59 H                    -0.014901       0.000018
     60 H                    -0.020517       0.000056
     61 O                    -0.444374      -0.000003
     62 O                    -0.429655       0.000004
     63 O                    -0.440467      -0.107942
     64 Fe                    0.448177       2.863197
     65 O                    -0.374686       0.009742
     66 O                    -0.439549       0.113499
     67 O                    -0.352924       0.006438
     68 O                    -0.433595       0.053707
     69 O                    -0.375870      -0.015897
     70 O                    -0.363764       0.055481
  --------------------------------------------------------
  Sum of atomic charges =    -3.000000
  Sum of spin   charges =     3.000000

 -----------------------------------------------------------------
                    Cartesian Multipole Moments
 -----------------------------------------------------------------
    Charge (ESU x 10^10)
               -14.4096
    Dipole Moment (Debye)
         X      -0.1874      Y      22.0139      Z      -3.6879
       Tot      22.3214
    Quadrupole Moments (Debye-Ang)
        XX    -479.0666     XY     -37.0051     YY    -313.1217
        XZ     -10.6078     YZ     -43.8812     ZZ    -317.7093
    Octopole Moments (Debye-Ang^2)
       XXX    -409.2300    XXY     654.2992    XYY      89.0491
       YYY     323.0549    XXZ     223.3678    XYZ      97.9706
       YYZ      90.2820    XZZ     117.3765    YZZ      91.1351
       ZZZ    -118.3894
    Hexadecapole Moments (Debye-Ang^3)
      XXXX  -25347.3504   XXXY    -417.6821   XXYY   -5019.0158
      XYYY    -763.1165   YYYY   -7765.2710   XXXZ    -301.4940
      XXYZ    -969.0912   XYYZ    -357.3114   YYYZ    -483.7775
      XXZZ   -3980.7800   XYZZ    -295.4544   YYZZ   -2059.2319
      XZZZ      56.3843   YZZZ    -124.0630   ZZZZ   -4242.1870
 -----------------------------------------------------------------
 Calculating analytic gradient of the SCF energy
 Gradient of SCF Energy
            1           2           3           4           5           6
    1  -0.0238059  -0.0332383   0.0361359   0.0794060  -0.0537794  -0.0267396
    2   0.0667332  -0.0141866   0.0358964  -0.0189886   0.0469745  -0.0848844
    3   0.0099578   0.0435868  -0.0489505  -0.0047854   0.0602170  -0.1365199
            7           8           9          10          11          12
    1   0.1675415  -0.1013204   0.1033828   0.0289930   0.0005592   0.0059337
    2   0.0225403   0.0311661  -0.0697366  -0.0094136  -0.0106950  -0.0175885
    3   0.0758705   0.0905520  -0.1404986   0.0129529  -0.0031872   0.0414926
           13          14          15          16          17          18
    1   0.0433338  -0.0251271   0.0042703  -0.0172457  -0.0049356  -0.0018907
    2   0.0096569  -0.0335297  -0.0286905   0.0461513   0.0366806  -0.0336122
    3  -0.0194808  -0.0298639  -0.0051968   0.0496811  -0.0622941   0.0046496
           19          20          21          22          23          24
    1  -0.0281781   0.0295157   0.0012359  -0.0371741  -0.0043667   0.0481133
    2   0.0243827   0.0096368   0.0437440  -0.0585587  -0.1185526   0.1593372
    3   0.1773066   0.0272884  -0.0553722  -0.0210291  -0.0545984   0.0668227
           25          26          27          28          29          30
    1  -0.0257806  -0.0295007   0.1419432  -0.1349319   0.0633590  -0.0200429
    2   0.0391714  -0.0695172   0.0266035   0.0457385   0.0111341   0.0006051
    3   0.0565802  -0.0421819   0.0144014   0.0993556   0.0370629   0.0051423
           31          32          33          34          35          36
    1  -0.0107798  -0.0012444  -0.0230299  -0.0276530   0.0102585   0.0303601
    2  -0.0067177  -0.0251814   0.0502368  -0.0330209   0.0144717  -0.0112567
    3  -0.0076656  -0.0556649  -0.0008837   0.0355545  -0.0128249   0.0495422
           37          38          39          40          41          42
    1  -0.0381081   0.0153518  -0.0315510  -0.0318668  -0.0348733   0.0526001
    2  -0.0375765   0.0084217  -0.0005755   0.0102779  -0.0066039  -0.0097330
    3  -0.0040772   0.0016067   0.0436583  -0.0452688   0.0011668  -0.0452621
           43          44          45          46          47          48
    1   0.0256761  -0.0095569   0.0431929  -0.0386676  -0.0022858  -0.0085302
    2  -0.0004828  -0.0192618   0.0435182   0.0102859  -0.0502395   0.0682965
    3   0.0540333  -0.0291558   0.0143678   0.0405310  -0.0091858  -0.0052961
           49          50          51          52          53          54
    1  -0.0076101   0.0013590   0.0437992  -0.0031177   0.0221428  -0.0129892
    2   0.0076911  -0.0107423  -0.0082250   0.0074346  -0.0426991   0.0154956
    3   0.0079117  -0.0555635   0.0191246  -0.0142967   0.0042639   0.0531717
           55          56          57          58          59          60
    1   0.0193029  -0.0689889   0.0149376  -0.0187514   0.0022732   0.0570658
    2  -0.0051318   0.0046970   0.0145997   0.0064585  -0.0272070   0.0023084
    3  -0.0084425  -0.0110779   0.0573841   0.0109024  -0.0541309   0.0115449
           61          62          63          64          65          66
    1  -0.1292064  -0.0366801  -0.0013279  -0.0040556   0.0286008   0.0223321
    2   0.0807322  -0.0744009   0.0013276   0.0136895  -0.1046921  -0.0024051
    3   0.0844753  -0.1132459   0.0300964  -0.0233813   0.0087519   0.0241184
           67          68          69          70
    1  -0.0800718  -0.0172318   0.0091252   0.0541348
    2  -0.0062821  -0.0121563   0.0494846  -0.0030347
    3  -0.0504598   0.0255799  -0.2120615  -0.0688024
 Max gradient component =       2.121E-01
 RMS gradient           =       5.052E-02
 Computing fast CPCM-SWIG gradient
 Updating gradient with PCM contributions...
 -- total gradient after adding PCM contribution --
---------------------------------------------------
  Atom         X              Y              Z     
---------------------------------------------------
   1      -0.000934      -0.002114      -0.003234
   2       0.000190      -0.000022       0.000003
   3      -0.000049       0.000009       0.000012
   4      -0.000394       0.000107      -0.000474
   5      -0.000013       0.000048       0.000177
   6       0.000047       0.000015       0.000084
   7      -0.000043      -0.000022      -0.000056
   8       0.001448      -0.000324       0.000557
   9      -0.000660       0.000123       0.000018
  10       0.003740       0.003175       0.006319
  11      -0.000714      -0.000172      -0.000661
  12      -0.000132       0.000036      -0.000005
  13      -0.000072       0.000021      -0.000118
  14       0.000077      -0.000299      -0.000073
  15       0.000181      -0.001097       0.002774
  16       0.000073       0.000257       0.000059
  17      -0.000894      -0.000797       0.000024
  18      -0.003455      -0.003202      -0.008320
  19      -0.000728       0.003977      -0.000181
  20       0.000042      -0.000645      -0.000071
  21       0.000233      -0.000041       0.000115
  22       0.000083       0.000003       0.000002
  23      -0.000747       0.000150       0.000513
  24       0.000393      -0.000198      -0.000064
  25       0.000411       0.000046      -0.000203
  26      -0.000115      -0.000069      -0.000045
  27      -0.000051      -0.000050      -0.000079
  28       0.000046       0.000026       0.000039
  29       0.003368       0.000124       0.001391
  30       0.001116      -0.000193      -0.004341
  31      -0.000547       0.000325       0.000390
  32      -0.000020      -0.000021      -0.000006
  33      -0.000193      -0.000134      -0.000075
  34      -0.000227      -0.000075      -0.000071
  35       0.000409       0.000850      -0.000174
  36      -0.000073       0.000008       0.000065
  37       0.000078      -0.000056      -0.000131
  38      -0.000159      -0.000188       0.000052
  39      -0.000000       0.000126       0.000067
  40       0.000003      -0.000022       0.000003
  41       0.000023       0.000082      -0.000141
  42       0.000009      -0.000063       0.000069
  43       0.000003      -0.000019       0.000003
  44       0.000002      -0.000033       0.000081
  45       0.000017       0.000019      -0.000005
  46      -0.000002       0.000020      -0.000028
  47      -0.000074       0.000010       0.000181
  48      -0.000012      -0.000006      -0.000045
  49      -0.000075      -0.000004       0.000152
  50      -0.000045       0.000005      -0.000030
  51       0.000087       0.000021      -0.000037
  52      -0.000262      -0.000324      -0.000683
  53       0.000254      -0.000085       0.000105
  54      -0.000050       0.000048       0.000015
  55      -0.000112       0.000215      -0.000019
  56       0.000095      -0.000329      -0.000028
  57       0.000116       0.000035       0.000021
  58       0.000011      -0.000078       0.000076
  59       0.000046       0.000007      -0.000019
  60       0.000028       0.000027      -0.000041
  61      -0.000071      -0.000035      -0.000042
  62       0.000050       0.000161       0.000012
  63       0.004564      -0.018712       0.010408
  64       0.008687       0.008228      -0.019201
  65      -0.001402      -0.001460       0.007946
  66      -0.000325       0.005214       0.002605
  67      -0.009298       0.008479      -0.000096
  68      -0.001195       0.000186      -0.000031
  69       0.000309      -0.002119       0.002701
  70      -0.003094       0.000828       0.001787
---------------------------------------------------
 Number of fixed atoms: 0
 Gradient time:  CPU 20268.14 s  wall 1337.32 s

 *****************************************************
             Starting BFGS Algorithm
 *****************************************************
            LIBOPT3 RUN PARAMETERS

  Geometry Optimization Coordinates :
	Delocalized Natural Internal Coordinates

  Step Length Selection Method :
	Eigenvector Following Algorithm

  Convergence Criteria :
	Max Gradient Component    	3.00000000e-04
	Max Displacement Component	1.20000000e-03
	Absolute Energy Difference	1.00000000e-06

  Initial Hessian :
	Approximate Hessian - Simple Internal Coordinate Scaled

  Type of Verification :
	Verify with final updated Hessian
 *****************************************************

	OPTIMIZATION CYCLE:	1

 Scaling Magnitude of Eigenvalues
 	Minimum: -25.00000000	 Maximum: 25.00000000
 204 Hessian Eigenvalues to form next step
   0.10000000   0.10000000   0.10000000   0.10000000   0.10000000
   0.10000000   0.10000000   0.10000000   0.10000000   0.10000000
   0.10000000   0.10000009   0.10000017   0.10000046   0.10000069
   0.10000077   0.10000376   0.10000662   0.10000735   0.10001274
   0.10003211   0.10010552   0.10011125   0.10018407   0.10025218
   0.10035388   0.10036567   0.10277126   0.10374666   0.10429540
   0.10509827   0.10582156   0.10732688   0.10856212   0.11008964
   0.11082556   0.11254023   0.11285794   0.11425127   0.11470978
   0.11916725   0.11959905   0.12025404   0.12073095   0.12146050
   0.12182617   0.12231937   0.12390610   0.12499668   0.12552623
   0.12620465   0.12631446   0.12665892   0.12679539   0.12719356
   0.12752101   0.12915140   0.13065115   0.13296423   0.13336716
   0.13392427   0.13618044   0.13688012   0.13703050   0.13813000
   0.13912496   0.14224670   0.14225936   0.14237860   0.14449584
   0.14463072   0.14543134   0.14922275   0.15121101   0.15137350
   0.15168677   0.15188865   0.15266124   0.15294216   0.15312523
   0.15461119   0.15615323   0.15723651   0.15770978   0.15797102
   0.15853192   0.15898757   0.16882257   0.17546970   0.17611648
   0.17651126   0.17660692   0.17722176   0.17763772   0.17795889
   0.17875761   0.17958377   0.18026239   0.18122084   0.18176075
   0.18251188   0.18323938   0.18699672   0.19208028   0.19610899
   0.19653285   0.19749011   0.19835048   0.19845066   0.19871924
   0.19966494   0.19972179   0.19984822   0.19987335   0.19993509
   0.19999530   0.19999865   0.19999997   0.20000000   0.20000000
   0.20000000   0.20000000   0.20000000   0.20000000   0.20000000
   0.20000000   0.20000000   0.20000000   0.20000000   0.20000000
   0.38064267   0.40327508   0.42069780   0.42174361   0.43356749
   0.43833338   0.46437566   0.47055727   0.47893551   0.48124829
   0.48280709   0.48900282   0.49854943   0.49890798   0.49996858
   0.50000000   0.50000000   0.50000000   0.50000000   0.50000000
   0.50000000   0.50000000   0.50000000   0.50000000   0.50000000
   0.50000000   0.50000000   0.50000000   0.50000000   0.50000000
   0.50000000   0.50000000   0.50000000   0.50000000   0.50000000
   0.50000000   0.50000000   0.50000000   0.50000000   0.50000000
   0.50000000   0.50000000   0.50000000   0.50000000   0.50000000
   0.50000000   0.50000000   0.50000000   0.50000000   0.50000000
   0.50000000   0.50000000   0.50000000   0.50000000   0.50000000
   0.50000000   0.50000000   0.50000000   0.50000000   0.50000000
   0.50000000   0.50000000   0.50000000   0.50000000   0.50000000
   0.50000000   0.50000000   0.50000000   0.50000000   0.50000000
   0.50000000   0.50000000   0.50000000   0.50000000

 Minimum Search taking a RFO step
 Searching for Lambda that minimizes along all modes
	Value of Lambda   -0.00228244
	Norm  of Stepsize  0.09228631
	RMS   of Stepsize  0.00646133

	Performing Iterative Coordinate Back-Transformation

	  Starting from Previous Position

	  iter:	0	rms: 1.7649208536e-02	maxdev: 5.6730694841e-02
	  iter:	1	rms: 1.8015375679e-04	maxdev: 5.5031788754e-04
	  iter:	2	rms: 3.2205487765e-08	maxdev: 7.4954082250e-08	 Success!

	Finished Iterative Coordinate Back-Transformation
 Adding empirical dispersion correction 
 ----------------------------------------------------------------
 Doing -D3(BJ) with
 s6  =   1.00000e+00
 s8  =   1.98890e+00
 a1  =   3.98100e-01
 a2  =   4.42110e+00
 -D3 energy without 3body term =     -1.7049450004e-01 hartrees
 ----------------------------------------------------------------
             Standard Nuclear Orientation (Angstroms)
    I     Atom           X                Y                Z
 ----------------------------------------------------------------
    1      N      -2.4230009133     2.5442959073    -0.8367151774
    2      C      -4.3683395519    -2.3343406709    -0.1288619476
    3      H      -4.9077503681    -2.9154873368     0.6434862505
    4      N      -2.9465163767    -2.3319809575     0.1912564847
    5      H      -2.4099073674    -2.8637360727    -0.4951260563
    6      C      -4.5479671449    -3.0962170081    -1.4798818737
    7      O      -5.7200381010    -3.1496441333    -1.9277566603
    8      C      -2.4014351104    -1.9327949574     1.3568283199
    9      O      -3.0544850589    -1.3500261313     2.2390766491
   10      C      -2.0150918710     3.5406550322    -0.0571628973
   11      C      -2.7988974027     4.8242817713     0.0265674530
   12      H      -2.9417525879     5.2765142591    -0.9662155401
   13      H      -3.7927471310     4.6528834438     0.4684394301
   14      H      -2.2435053373     5.5244666346     0.6625772477
   15      C      -0.9346078679    -2.2837807223     1.5621558812
   16      H      -0.5693471941    -2.9724487255     0.7895481615
   17      H      -0.8769632037    -2.7914668935     2.5369346492
   18      C       0.0293247760    -1.0746300105     1.6061562498
   19      C      -0.4074689812    -0.0894158268     2.7236820858
   20      C       1.4636976195    -1.5463303783     1.9869099124
   21      H       1.4153254012    -2.2279961293     2.8491411168
   22      H       2.0426539924    -0.6608703997     2.2849476061
   23      C       2.1681898821    -2.2470890788     0.8379983327
   24      O       1.7322840561    -3.2865385580     0.3139088007
   25      N       3.3019173629    -1.6484080626     0.4261444909
   26      H       3.7202471009    -0.8898017475     0.9619205594
   27      C       5.5911001204    -1.5047629949    -0.4112767640
   28      O       6.4798347048    -1.8736989585    -1.2137926604
   29      N       2.3785802721     2.0657402477    -0.9216165121
   30      C       2.7032330078     2.1411083349     0.3672644724
   31      C       4.1345517493     2.3249192431     0.7869790497
   32      H       4.1438911193     2.7669841717     1.7919320110
   33      H       4.6524474207     1.3500477356     0.8218438092
   34      H       4.6894643133     2.9767178183     0.0978908624
   35      C       3.3042173943     1.9838496354    -2.0547233505
   36      H       2.6884829928     2.1994327957    -2.9382056422
   37      H       4.0554012751     2.7821925231    -1.9617707141
   38      C       3.9867735530     0.6179365731    -2.1585234436
   39      H       4.6708802534     0.6321811780    -3.0255871010
   40      H       4.6171010072     0.4880276948    -1.2692560149
   41      C       2.9975636070    -0.5455441049    -2.2605374936
   42      H       2.2010908072    -0.3917012313    -1.5165255694
   43      H       2.5057617184    -0.5263314491    -3.2495017485
   44      C       3.6135611000    -1.9301864521    -2.0311177000
   45      H       2.8326409776    -2.6870280217    -2.2087043331
   46      H       4.4329791516    -2.1313270631    -2.7403633367
   47      C       4.1848727256    -2.1488533201    -0.6102894949
   48      H       4.3166147600    -3.2373820694    -0.4796248283
   49      C      -4.6709599924     1.4827968011    -0.9487135146
   50      H      -4.7156281229     1.7092375659     0.1317358066
   51      H      -5.6744488748     1.7010072909    -1.3542400048
   52      C      -3.6722203506     2.4583050174    -1.5873076701
   53      H      -4.0979196873     3.4668053015    -1.6453848008
   54      H      -3.4160418717     2.1390608864    -2.6111058766
   55      C      -4.3159936918     0.0048702063    -1.1585727513
   56      H      -3.2310769104    -0.1011150027    -1.0418903729
   57      H      -4.5590406625    -0.2905618103    -2.1954240488
   58      C      -5.0023401743    -0.9341011807    -0.1697444715
   59      H      -4.9397837703    -0.5018371819     0.8406028622
   60      H      -6.0680095589    -1.0666242328    -0.4147831015
   61      O      -3.5058874580    -3.5929417080    -1.9943974432
   62      O       5.7118725227    -0.6755750549     0.5408191831
   63      O       0.0640074381    -0.4373306183     0.3604836125
   64      Fe     -0.0926572674     1.4508609097     0.3736222531
   65      O      -0.6701085828     1.1087642723     2.3091453232
   66      O      -1.6773406865     1.4031214580    -0.8289917812
   67      O      -0.9466477019     3.3933797685     0.6269359667
   68      O       1.0640644788     1.8757321483    -1.2290907710
   69      O      -0.4335880750    -0.4418225500     3.9061490756
   70      O       1.7733958474     2.0423450797     1.2338877990
 ----------------------------------------------------------------
 Nuclear Repulsion Energy =        6071.20509105 hartrees
 There are      163 alpha and      160 beta electrons
No default van der Waals radius is available for Z = 26
	Found R = 2.4400 A in the $van_der_waals section
 Discretize the solute cavity surface with Lebedev spheres
	Using 110 Lebedev grid points for each H atom
	Using 194 Lebedev grid points for other atoms
	Atomic van der Waals radii (Bondi set) will be scaled by 1.20
 Using smooth SwiG surface discretization
 Remove points where switching function is < 1.0e-08
 Keep 4107 surface tesserae and discard 6953 interior tesserae
 Molecular Surface Area = 524.739 Angst**2

 Applying Cartesian multipole field
    Component          Value
    ---------          -----
     (2,0,0)        1.00000E-12
     (0,2,0)        2.00000E-12
     (0,0,2)       -3.00000E-11
 Nucleus-field energy     =-5.1967748084e-08 hartrees
 Read the previous MOs as SCF guess

 -----------------------------------------------------------------------
  General SCF calculation program by
  Eric Jon Sundstrom, Paul Horn, Yuezhi Mao, Dmitri Zuev, Alec White,
  David Stuck, Shaama M.S., Shane Yost, Joonho Lee, David Small,
  Daniel Levine, Susi Lehtola, Hugh Burton, Evgeny Epifanovsky,
  Bang C. Huynh
 -----------------------------------------------------------------------
 Requested basis set is non-standard
 There are 339 shells and 739 basis functions
 Exchange:     0.2000 Hartree-Fock + 0.0800 Slater + 0.7200 B88
 Correlation:  0.1900 VWN1RPA + 0.8100 LYP
 Using SG-1 standard quadrature grid
 Dispersion:   Grimme D3
 A cutoff of  1.0D-12 yielded  45147 shell pairs
 There are    196541 function pairs (    218068 Cartesian)
 Smallest overlap matrix eigenvalue = 2.87E-04
 A unrestricted SCF calculation will be
 performed using DIIS
 SCF converges when DIIS error is below 1.0e-08
 ---------------------------------------
  Cycle       Energy         DIIS error
 ---------------------------------------
    1   -3317.4642318839      2.45e-04  
    2   -3317.9191339997      3.53e-04  
    3   -3317.9673899437      1.50e-04  
    4   -3317.9742078110      9.34e-05  
    5   -3317.9780811140      5.93e-05  
    6   -3317.9797760565      4.56e-05  
    7   -3317.9804163496      2.00e-05  
    8   -3317.9805760559      6.73e-06  
    9   -3317.9805952776      2.61e-06  
   10   -3317.9806009775      1.75e-06  
   11   -3317.9806046173      1.42e-06  
   12   -3317.9806080275      8.48e-07  
   13   -3317.9806100307      6.07e-07  
   14   -3317.9806111610      5.28e-07  
   15   -3317.9806125800      4.40e-07  
   16   -3317.9806149399      3.21e-07  
   17   -3317.9806159487      2.46e-07  
   18   -3317.9806163832      1.43e-07  
   19   -3317.9806164659      1.08e-07  
   20   -3317.9806164983      7.08e-08  
   21   -3317.9806165127      5.01e-08  
   22   -3317.9806165241      5.30e-08  
   23   -3317.9806165315      3.88e-08  
   24   -3317.9806165420      3.69e-08  
   25   -3317.9806165576      3.29e-08  
   26   -3317.9806165803      2.97e-08  
   27   -3317.9806166021      2.42e-08  
   28   -3317.9806166099      1.80e-08  
   29   -3317.9806166134      1.56e-08  
   30   -3317.9806166139      1.01e-08  
   31   -3317.9806166141      8.61e-09  Convergence criterion met
 ---------------------------------------
 SCF time:   CPU 54843.91s  wall 4001.00s 
<S^2> =          3.920831872

************** Final PCM Free Energy Summary **************
 G_electrostatic  =      -0.52222140 hartree =    -327.69887147 kcal/mol
 G_cavitation     =       0.00000000 hartree =       0.00000000 kcal/mol
 G_dispersion     =       0.00000000 hartree =       0.00000000 kcal/mol
 G_repulsion      =       0.00000000 hartree =       0.00000000 kcal/mol
 --------------------------------------------------
 Non-electrostatic Free Energy =       0.00000000 hartree =       0.00000000 kcal/mol
 Total                         =      -0.52222140 hartree =    -327.69887147 kcal/mol
 --------------------------------------------------
 SCF Energy (H0 + V/2)                       =   -3317.98061661 
 Solute Internal Energy (H0)                 =   -3317.45839522 
 Total Free Energy (H0 + V/2 + non-elec)     =   -3317.98061661 hartree
                                             = -2082064.26151974 kcal/mol
[...]
    1   0.1704962  -0.0987910   0.0997413   0.0127578   0.0021800   0.0063805
    2   0.0253476   0.0286205  -0.0668874  -0.0112968  -0.0119670  -0.0152836
    3   0.0669471   0.0914333  -0.1430059   0.0017975  -0.0012836   0.0421552
           13          14          15          16          17          18
    1   0.0426366  -0.0285560   0.0053197  -0.0166394  -0.0064638  -0.0009347
    2   0.0053785  -0.0333864  -0.0276328   0.0436936   0.0395402  -0.0369093
    3  -0.0213981  -0.0268183  -0.0076087   0.0530679  -0.0602388   0.0174440
           19          20          21          22          23          24
    1  -0.0236873   0.0281530   0.0000388  -0.0378136  -0.0059577   0.0514954
    2   0.0100206   0.0100909   0.0441914  -0.0575024  -0.1163636   0.1560194
    3   0.1823478   0.0259379  -0.0547397  -0.0216533  -0.0584271   0.0712559
           25          26          27          28          29          30
    1  -0.0260182  -0.0314101   0.1436433  -0.1327873   0.0629914  -0.0278046
    2   0.0390906  -0.0686304   0.0243722   0.0442135   0.0093593  -0.0016561
    3   0.0574166  -0.0435971   0.0134199   0.1043624   0.0359580   0.0153265
           31          32          33          34          35          36
    1  -0.0079426  -0.0029008  -0.0236164  -0.0265149   0.0102916   0.0312903
    2  -0.0057292  -0.0229582   0.0504476  -0.0352597   0.0151938  -0.0136738
    3  -0.0079070  -0.0567795   0.0021756   0.0354630  -0.0123893   0.0492082
           37          38          39          40          41          42
    1  -0.0385593   0.0152630  -0.0312418  -0.0327185  -0.0351042   0.0532639
    2  -0.0381857   0.0089752  -0.0029046   0.0123248  -0.0064461  -0.0077151
    3  -0.0055222   0.0016926   0.0442837  -0.0450106   0.0010911  -0.0460868
           43          44          45          46          47          48
    1   0.0257740  -0.0104376   0.0432564  -0.0382790  -0.0025688  -0.0075011
    2  -0.0025849  -0.0181163   0.0435089   0.0086410  -0.0502035   0.0688606
    3   0.0544214  -0.0300730   0.0151985   0.0417421  -0.0102800  -0.0037617
           49          50          51          52          53          54
    1  -0.0071319  -0.0005961   0.0434120  -0.0025510   0.0202041  -0.0124307
    2   0.0085616  -0.0115870  -0.0099274   0.0071696  -0.0428467   0.0175463
    3   0.0084461  -0.0552083   0.0180040  -0.0140076   0.0053108   0.0523786
           55          56          57          58          59          60
    1   0.0175134  -0.0678623   0.0190267  -0.0181838  -0.0015093   0.0576559
    2  -0.0068768   0.0072633   0.0154333   0.0067466  -0.0295916   0.0022503
    3  -0.0093661  -0.0059875   0.0548411   0.0118347  -0.0528393   0.0081122
           61          62          63          64          65          66
    1  -0.1253403  -0.0410227  -0.0035576  -0.0072570   0.0349240   0.0218302
    2   0.0818130  -0.0703297   0.0177979   0.0087798  -0.0959648  -0.0037807
    3   0.0878380  -0.1166729   0.0212335  -0.0122788  -0.0018739   0.0219665
           67          68          69          70
    1  -0.0640794  -0.0159126   0.0040146   0.0585236
    2  -0.0127138  -0.0140628   0.0527821   0.0007622
    3  -0.0474503   0.0238974  -0.2174575  -0.0768102
 Max gradient component =       2.175E-01
 RMS gradient           =       5.058E-02
 Computing fast CPCM-SWIG gradient
 Updating gradient with PCM contributions...
 -- total gradient after adding PCM contribution --
---------------------------------------------------
  Atom         X              Y              Z     
---------------------------------------------------
   1      -0.000039       0.000008       0.000105
   2       0.000034       0.000044       0.000077
   3      -0.000010       0.000005      -0.000009
   4       0.000017      -0.000029       0.000000
   5      -0.000011      -0.000007      -0.000016
   6      -0.000014      -0.000039      -0.000068
   7      -0.000004       0.000009       0.000002
   8       0.000033       0.000026      -0.000042
   9      -0.000012       0.000002       0.000043
  10      -0.000027      -0.000003      -0.000037
  11       0.000009      -0.000043       0.000024
  12       0.000028       0.000023      -0.000000
  13      -0.000017      -0.000001      -0.000029
  14      -0.000018      -0.000009       0.000025
  15      -0.000033       0.000060       0.000066
  16       0.000013       0.000013      -0.000025
  17       0.000017      -0.000014      -0.000019
  18      -0.000020      -0.000162      -0.000011
  19       0.000012       0.000123       0.000060
  20      -0.000042       0.000104      -0.000005
  21       0.000031      -0.000061      -0.000030
  22      -0.000009      -0.000008       0.000029
  23      -0.000002       0.000001      -0.000022
  24       0.000031       0.000013       0.000020
  25      -0.000012      -0.000037      -0.000003
  26      -0.000000      -0.000009       0.000005
  27       0.000016      -0.000011       0.000006
  28      -0.000004       0.000012       0.000009
  29      -0.000033       0.000119      -0.000048
  30      -0.000011      -0.000164       0.000033
  31       0.000021       0.000014       0.000025
  32      -0.000004       0.000003      -0.000002
  33       0.000003       0.000006      -0.000015
  34      -0.000005       0.000001      -0.000001
  35       0.000028      -0.000016       0.000040
  36       0.000002       0.000000      -0.000015
  37      -0.000012      -0.000003       0.000014
  38      -0.000027       0.000025       0.000010
  39      -0.000007      -0.000013      -0.000008
  40       0.000009       0.000009      -0.000004
  41       0.000017      -0.000028      -0.000022
  42      -0.000006      -0.000011      -0.000007
  43      -0.000004       0.000018       0.000005
  44       0.000045       0.000028      -0.000023
  45      -0.000024       0.000006       0.000041
  46      -0.000019      -0.000019      -0.000008
  47      -0.000006       0.000031      -0.000010
  48      -0.000005       0.000001      -0.000009
  49      -0.000035       0.000036       0.000002
  50       0.000005      -0.000000       0.000002
  51       0.000002      -0.000013      -0.000002
  52       0.000036      -0.000014      -0.000040
  53      -0.000001       0.000009       0.000014
  54      -0.000005      -0.000003       0.000012
  55      -0.000009      -0.000003       0.000011
  56       0.000000      -0.000012      -0.000011
  57       0.000005       0.000004      -0.000005
  58      -0.000016      -0.000029       0.000009
  59       0.000011       0.000015      -0.000006
  60       0.000003      -0.000013       0.000001
  61       0.000013      -0.000002       0.000006
  62       0.000008      -0.000007      -0.000008
  63       0.000037      -0.000034      -0.000036
  64      -0.000057       0.000001      -0.000035
  65      -0.000003       0.000026       0.000003
  66       0.000010      -0.000060      -0.000048
  67       0.000064       0.000005       0.000034
  68       0.000026       0.000033       0.000009
  69      -0.000016       0.000001      -0.000033
  70      -0.000006       0.000042      -0.000028
---------------------------------------------------
 Number of fixed atoms: 0
 Gradient time:  CPU 17359.93 s  wall 1147.11 s

     Step 25	:
        Energy is -3317.9863320508
                            Maximum         Tolerance       Converged?
         Gradient           7.20949066e-05	3.00000000e-04	true
         Displacement       2.45927340e-03	1.20000000e-03	false
         Energy change      9.09374648e-07	1.00000000e-06	true

	 Optimization Converged in 25 cycles

 *****************************************************
             End of BFGS Algorithm
 *****************************************************
		----------------------------------
		   Verification of Optimization
		----------------------------------

 Eigenvalues of Hessian in Optimization Verification
   0.00201995   0.00747873   0.01342664   0.03355176   0.03685608
   0.06181755   0.09120129   0.09998419   0.10000018   0.10000031
   0.10000083   0.10000150   0.10000173   0.10000295   0.10000428
   0.10000763   0.10000911   0.10001858   0.10003219   0.10004271
   0.10009635   0.10014332   0.10023039   0.10025579   0.10031072
   0.10036369   0.10041586   0.10092143   0.10114047   0.10151350
   0.10242022   0.10349704   0.10449424   0.10503971   0.10773899
   0.10797052   0.10938678   0.10999185   0.11286979   0.11410368
   0.11418352   0.11859381   0.11919982   0.11997709   0.12039144
   0.12118023   0.12163841   0.12347343   0.12427412   0.12499157
   0.12594709   0.12628676   0.12668754   0.12682489   0.12722210
   0.12809069   0.12860068   0.12977726   0.13132933   0.13292768
   0.13327937   0.13453526   0.13599397   0.13690740   0.13799660
   0.13917807   0.14169780   0.14223848   0.14229628   0.14391562
   0.14443761   0.14472940   0.14572044   0.14630789   0.14982149
   0.15142973   0.15172541   0.15186738   0.15262228   0.15298580
   0.15313110   0.15581339   0.15680548   0.15747436   0.15764867
   0.15802468   0.15956804   0.16175664   0.17381835   0.17613728
   0.17643384   0.17661740   0.17729776   0.17767821   0.17863865
   0.17908532   0.17974400   0.18122917   0.18200763   0.18302384
   0.18545774   0.19041822   0.19143147   0.19593687   0.19618415
   0.19661091   0.19779609   0.19832977   0.19850424   0.19915124
   0.19958452   0.19972392   0.19980732   0.19990214   0.19995399
   0.19996609   0.19998186   0.19999907   0.20001246   0.20005229
   0.20013450   0.20024021   0.20257780   0.20540313   0.21356662
   0.22442072   0.22979968   0.24770195   0.27822900   0.28822440
   0.31687433   0.34075909   0.37595660   0.39129807   0.41472847
   0.42773900   0.43856355   0.45348919   0.46298055   0.46680688
   0.47207392   0.47372400   0.48246120   0.48447867   0.48532671
   0.48899546   0.49217677   0.49499548   0.49659447   0.49924551
   0.49994791   0.49999611   0.49999884   0.50000000   0.50000000
   0.50000000   0.50000000   0.50000000   0.50000000   0.50000000
   0.50000000   0.50000000   0.50000000   0.50000000   0.50000000
   0.50000000   0.50000000   0.50000000   0.50000000   0.50000000
   0.50000000   0.50000000   0.50000000   0.50000000   0.50000000
   0.50000000   0.50000000   0.50000000   0.50000000   0.50000000
   0.50000000   0.50000000   0.50000000   0.50000000   0.50000000
   0.50000000   0.50000027   0.50000060   0.50000238   0.50000307
   0.50002925   0.50007520   0.50018896   0.50080409   0.50197304
   0.50291314   0.50625298   0.52597841   0.54205754   0.54552630
   0.56105238   0.56997340   0.70966545   0.96986274

 Found a minimum
		---------------------------------
		       End of Verification
		---------------------------------

 Final energy is -3317.986332050797

	******************************
	**  OPTIMIZATION CONVERGED  **
	******************************
 Adding empirical dispersion correction 
 ----------------------------------------------------------------
 Doing -D3(BJ) with
 s6  =   1.00000
 s8  =   1.98890
 a1  =   0.39810
 a2  =   4.42110
 -D3 energy without 3body term =     -0.1715740611 hartrees
 ----------------------------------------------------------------
             Standard Nuclear Orientation (Angstroms)
    I     Atom           X                Y                Z
 ----------------------------------------------------------------
    1      N      -2.3939035329     2.4584825973    -0.9116235050
    2      C      -4.3995998961    -2.3214721233    -0.0527748611
    3      H      -4.9170089683    -2.8664916849     0.7593761376
    4      N      -2.9679863858    -2.3209286048     0.2205921486
    5      H      -2.4551807502    -2.8631167393    -0.4757288648
    6      C      -4.6320140315    -3.1276130207    -1.3692394347
    7      O      -5.8215178618    -3.1961023126    -1.7663186935
    8      C      -2.3888738289    -1.9233643270     1.3704293647
    9      O      -3.0169515430    -1.3420855257     2.2714751456
   10      C      -1.9636019968     3.4591271044    -0.1591510501
   11      C      -2.6658379526     4.7883583407    -0.1354186977
   12      H      -2.8168205796     5.1868290577    -1.1492810216
   13      H      -3.6517718861     4.7028718107     0.3484068942
   14      H      -2.0509924599     5.4913773101     0.4398990980
   15      C      -0.9172089506    -2.2800691074     1.5298856641
   16      H      -0.5634997339    -2.9272526128     0.7180049944
   17      H      -0.8378160588    -2.8391438610     2.4756007415
   18      C       0.0400326538    -1.0685582743     1.6116615120
   19      C      -0.4060137850    -0.1107987873     2.7398203411
   20      C       1.4808662391    -1.5311860011     1.9538486826
   21      H       1.4501395311    -2.2220535512     2.8100290132
   22      H       2.0611450758    -0.6467531356     2.2498658648
   23      C       2.1682503718    -2.2191686367     0.7851464943
   24      O       1.7075507363    -3.2301684462     0.2278482576
   25      N       3.3197011648    -1.6402062835     0.3955854142
   26      H       3.7563875007    -0.9077128723     0.9521772477
   27      C       5.5979878535    -1.5042760639    -0.4768532225
   28      O       6.4634249192    -1.8511122429    -1.3141584332
   29      N       2.3582447154     2.0830538660    -0.7868753032
   30      C       2.7086443125     2.0996125247     0.4991128113
   31      C       4.1549563056     2.2736751582     0.8832125118
   32      H       4.1903359149     2.6695093147     1.9070425149
   33      H       4.6832177827     1.3045793985     0.8609401340
   34      H       4.6869656398     2.9618076525     0.2115348172
   35      C       3.2703610907     2.0552899478    -1.9327607190
   36      H       2.6467321713     2.3105893662    -2.8002610268
   37      H       4.0221197081     2.8500073714    -1.8141563294
   38      C       3.9537823225     0.6970894309    -2.1069598875
   39      H       4.6293134841     0.7521253911    -2.9793496586
   40      H       4.5934581659     0.5285289774    -1.2310316693
   41      C       2.9680784816    -0.4650344882    -2.2540868801
   42      H       2.1670886818    -0.3396453286    -1.5097012844
   43      H       2.4807392574    -0.4106643187    -3.2441351631
   44      C       3.5897853735    -1.8549365771    -2.0755904382
   45      H       2.8097174428    -2.6083806640    -2.2698075997
   46      H       4.4023260154    -2.0274703667    -2.7998042524
   47      C       4.1789699846    -2.1215695124    -0.6698160882
   48      H       4.2977063393    -3.2150308545    -0.5701139553
   49      C      -4.6677766704     1.4661535097    -1.0032819893
   50      H      -4.6828021023     1.7114098361     0.0738175574
   51      H      -5.6679098913     1.7207884867    -1.3945282597
   52      C      -3.6412942454     2.3944876223    -1.6700226207
   53      H      -4.0362898655     3.4135813949    -1.7547918644
   54      H      -3.3908476482     2.0404283899    -2.6835038896
   55      C      -4.3766179596    -0.0298389627    -1.1923389864
   56      H      -3.2903138833    -0.1684679083    -1.1431490631
   57      H      -4.7004469482    -0.3483143279    -2.1995161733
   58      C      -5.0199979822    -0.9159367086    -0.1267739894
   59      H      -4.9004893037    -0.4401265539     0.8588464637
   60      H      -6.0988092709    -1.0441436099    -0.3088771528
   61      O      -3.6103077069    -3.6376432745    -1.9108763692
   62      O       5.7528983598    -0.7195717375     0.5073197740
   63      O       0.0397552146    -0.3920713051     0.3739233271
   64      Fe     -0.1630911744     1.4244571740     0.4630267177
   65      O      -0.7271283096     1.0828264985     2.3240959802
   66      O      -1.6983864729     1.2870128597    -0.8396504943
   67      O      -0.9270563113     3.2707066777     0.5781170261
   68      O       1.0399795039     1.9056908684    -1.0956898628
   69      O      -0.3974076940    -0.4580551665     3.9226055151
   70      O       1.8114208281     1.9628708415     1.3889388878
 ----------------------------------------------------------------
 Nuclear Repulsion Energy =        6091.76564651 hartrees
 There are      163 alpha and      160 beta electrons

Z-matrix Print:
$molecule
-3 4
Fe
O  1 1.829990
C  2 1.410543 1 115.681100
C  3 1.545640 2 110.074421 1 10.838368 0
O  4 1.232738 3 121.584344 2 -175.157503 0
O  4 1.304102 3 113.924939 2 2.153097 0
C  3 1.546207 2 109.223182 1 131.966553 0
H  7 1.096862 3 107.566851 2 58.836654 0
H  7 1.101474 3 107.918704 2 175.399757 0
C  7 1.522650 3 114.856238 2 -66.412791 0
O  10 1.242679 7 121.476362 3 -66.268590 0
N  10 1.347425 7 115.826389 3 116.097193 0
H  12 1.020686 10 121.531612 7 2.615923 0
C  12 1.457480 10 125.614709 7 167.800292 0
H  14 1.106502 12 108.773404 10 -52.604325 0
C  14 1.538148 12 113.882695 10 66.955792 0
H  16 1.100966 14 107.942583 12 -62.667597 0
H  16 1.101559 14 107.254254 12 -178.505899 0
C  16 1.527919 14 113.181760 12 58.243030 0
H  19 1.096218 16 108.218461 14 -42.819003 0
H  19 1.104852 16 110.191364 14 74.042462 0
C  19 1.535744 16 113.530779 14 -162.433358 0
H  22 1.103711 19 110.664424 16 -80.509657 0
H  22 1.104771 19 109.806865 16 36.635719 0
C  22 1.536234 19 114.113338 16 157.187311 0
H  25 1.096248 22 110.766866 19 163.786009 0
H  25 1.102373 22 110.899507 19 43.856355 0
N  25 1.461249 22 111.814408 19 -75.853384 0
C  28 1.323882 25 127.269009 22 -105.884878 0
O  29 1.285882 28 118.498656 25 170.784637 0
O  28 1.364282 25 115.148648 22 64.706407 0
C  29 1.503514 28 121.694398 25 -8.344011 0
H  32 1.096933 29 108.245438 28 -171.995137 0
H  32 1.099769 29 111.708987 28 -51.779215 0
H  32 1.101572 29 110.876652 28 68.826446 0
C  3 1.551489 2 109.677374 1 -106.588356 0
H  36 1.098440 3 108.055969 2 73.521143 0
H  36 1.100585 3 109.440425 2 -168.999691 0
C  36 1.520422 3 112.659214 2 -47.492444 0
O  39 1.242959 36 123.033193 3 -57.947238 0
N  39 1.346400 36 114.485755 3 121.796483 0
H  41 1.018350 39 121.190828 36 10.127222 0
C  41 1.450908 39 125.188918 36 178.376329 0
H  43 1.104399 41 109.017833 39 -44.856616 0
C  43 1.547396 41 112.608471 39 73.821310 0
H  45 1.101773 43 108.173231 41 -77.964796 0
H  45 1.102033 43 106.816191 41 166.688309 0
C  45 1.533039 43 114.608259 41 42.828004 0
H  48 1.100644 45 108.642990 43 -58.446064 0
H  48 1.104831 45 109.137470 43 -173.865386 0
C  48 1.530944 45 114.577130 43 63.039584 0
H  51 1.097656 48 109.592978 45 -44.797756 0
H  51 1.104733 48 110.832371 45 72.273669 0
C  51 1.530398 48 113.396707 45 -165.299177 0
H  54 1.098475 51 111.709110 48 -61.115381 0
H  54 1.100356 51 110.374198 48 179.003396 0
N  54 1.464848 51 112.576948 48 56.818608 0
C  57 1.332974 54 126.244747 51 72.531756 0
O  58 1.271023 57 119.242754 54 -171.690443 0
O  57 1.365521 54 114.945198 51 -98.806397 0
C  58 1.506535 57 119.984545 54 8.076820 0
H  61 1.098255 58 108.074130 57 156.876560 0
H  61 1.098959 58 112.412368 57 36.320836 0
H  61 1.103949 58 110.660060 57 -84.270544 0
C  43 1.559454 41 108.463988 39 -160.360932 0
O  65 1.253139 43 115.860850 41 178.707514 0
O  65 1.268209 43 116.878428 41 -0.818389 0
C  14 1.561076 12 107.734266 10 -168.441618 0
O  68 1.255899 14 115.836242 12 -178.311001 0
O  68 1.263877 14 116.707574 12 1.859258 0
$end

 -----------------------------------------------------------------------
                  END OF GEOMETRY OPTIMIZER USING LIBOPT3               
 -----------------------------------------------------------------------
 Total job time:  99463.33s(wall), 1417536.42s(cpu) 
 Wed May 29 16:21:45 2024

        *************************************************************
        *                                                           *
        *  Thank you very much for using Q-Chem.  Have a nice day.  *
        *                                                           *
        *************************************************************


remove work dirs /scratch/qchem_scratch/qchem13447.0 -- /scratch/qchem_scratch/qchem13447.0
rm -rf /scratch/qchem_scratch/qchem13447.0
rm -rf /scratch/qchem_scratch/qchem13447
