You are running Q-Chem version: 6.0.2

#
# job setting
#
local host:  itcotck
current dir: /home/cooksy_group/sgardner/carrano
input file:  C_FeAB_C_ccL_3quartet_SfS_b3lypD3bj_ccpVDZ_pcmH2O_tddft100.in
output file: 
nprocs     : 1
nthreads   : 16
#
# qchem installation setting
#
QC:          /opt/qchem/6.0.2
QCAUX:       /opt/qchem/6.0.2/qcaux
QCPROG:      /opt/qchem/6.0.2/exe/qcprog.exe_s
QCPROG_S:    /opt/qchem/6.0.2/exe/qcprog.exe_s
PARALLEL:    -DSERIAL
QCMPI:       seq
#
# qchem directory setting
#
qcrun:       qchem44671
QCSCRATCH:   /scratch/qchem_scratch
QCLOCALSCR:  
QCTMPDIR:    /scratch/qchem_scratch
QCFILEPREF:  /scratch/qchem_scratch/qchem44671
QCSAVEDIR:   
workdirs:    /scratch/qchem_scratch/qchem44671
workdir0:    /scratch/qchem_scratch/qchem44671
partmpdirs =  
#
# parallel setting
#
QCRSH:           ssh
QCMPI:           seq
QCMPIRUN:        
QCMACHINEFILE:   /opt/qchem/6.0.2/bin/mpi/machines


#
# env setting
#
exported envs:   QC QCAUX QCSCRATCH QCRUNNAME QCFILEPREF QCPROG QCPROG_S GUIFILE

Running Job 1 of 1 C_FeAB_C_ccL_3quartet_SfS_b3lypD3bj_ccpVDZ_pcmH2O_tddft100.in
qchem C_FeAB_C_ccL_3quartet_SfS_b3lypD3bj_ccpVDZ_pcmH2O_tddft100.in_44671.0 /scratch/qchem_scratch/qchem44671/ 1
/opt/qchem/6.0.2/exe/qcprog.exe_s C_FeAB_C_ccL_3quartet_SfS_b3lypD3bj_ccpVDZ_pcmH2O_tddft100.in_44671.0 /scratch/qchem_scratch/qchem44671/
                  Welcome to Q-Chem
     A Quantum Leap Into The Future Of Chemistry


 Q-Chem 6.0, Q-Chem, Inc., Pleasanton, CA (2022)

 E. Epifanovsky,  A. T. B. Gilbert,  Xintian Feng,  Joonho Lee,  Yuezhi Mao,  
 N. Mardirossian,  P. Pokhilko,  A. White,  M. Wormit,  M. P. Coons,  
 A. L. Dempwolff,  Zhengting Gan,  D. Hait,  P. R. Horn,  L. D. Jacobson,  
 I. Kaliman,  J. Kussmann,  A. W. Lange,  Ka Un Lao,  D. S. Levine,  Jie Liu,  
 S. C. McKenzie,  A. F. Morrison,  K. Nanda,  F. Plasser,  D. R. Rehn,  
 M. L. Vidal,  Zhi-Qiang You,  Ying Zhu,  B. Alam,  B. Albrecht,  
 A. Aldossary,  E. Alguire,  J. H. Andersen,  V. Athavale,  D. Barton,  
 K. Begam,  A. Behn,  N. Bellonzi,  Y. A. Bernard,  E. J. Berquist,  
 H. Burton,  A. Carreras,  K. Carter-Fenk,  Romit Chakraborty,  
 Chandrima Chakravarty,  Junhan Chen,  A. D. Chien,  K. D. Closser,  
 V. Cofer-Shabica,  L. Cunha,  S. Dasgupta,  Jia Deng,  M. de Wergifosse,  
 M. Diedenhofen,  Hainam Do,  S. Ehlert,  Po-Tung Fang,  S. Fatehi,  
 Qingguo Feng,  T. Friedhoff,  B. Ganoe,  J. Gayvert,  Qinghui Ge,  
 G. Gidofalvi,  M. Goldey,  J. Gomes,  C. Gonzalez-Espinoza,  S. Gulania,  
 A. Gunina,  J. A. Gyamfi,  M. W. D. Hanson-Heine,  P. H. P. Harbach,  
 A. W. Hauser,  M. F. Herbst,  M. Hernandez Vera,  M. Hodecker,  
 Z. C. Holden,  S. Houck,  Xunkun Huang,  Kerwin Hui,  B. C. Huynh,  
 K. Ikeda,  M. Ivanov,  Hyunjun Ji,  Zuxin Jin,  Hanjie Jiang,  B. Kaduk,  
 S. Kaehler,  R. Kang,  K. Khistyaev,  Jaehoon Kim,  Yongbin Kim,  
 P. Klunzinger,  Z. Koczor-Benda,  Joong Hoon Koh,  D. Kosenkov,  
 Saikiran Kotaru,  L. Koulias,  T. Kowalczyk,  C. M. Krauter,  K. Kue,  
 A. Kunitsa,  T. Kus,  A. Landau,  K. V. Lawler,  D. Lefrancois,  S. Lehtola,  
 Rain Li,  Shaozhi Li,  Yi-Pei Li,  Jiashu Liang,  M. Liebenthal,  
 Hung-Hsuan Lin,  You-Sheng Lin,  Fenglai Liu,  Kuan-Yu Liu,  
 M. Loipersberger,  A. Luenser,  C. Malbon,  A. Manjanath,  P. Manohar,  
 E. Mansoor,  S. F. Manzer,  Shan-Ping Mao,  A. V. Marenich,  T. Markovich,  
 S. Mason,  F. Matz,  S. A. Maurer,  P. F. McLaughlin,  M. F. S. J. Menger,  
 J.-M. Mewes,  S. A. Mewes,  P. Morgante,  Mohammad Mostafanejad,  
 J. W. Mullinax,  K. J. Oosterbaan,  G. Paran,  V. Parravicini,  
 Alexander C. Paul,  Suranjan K. Paul,  F. Pavosevic,  Zheng Pei,  S. Prager,  
 E. I. Proynov,  E. Ramos,  B. Rana,  A. E. Rask,  A. Rettig,  R. M. Richard,  
 F. Rob,  E. Rossomme,  T. Scheele,  M. Scheurer,  M. Schneider,  
 P. E. Schneider,  N. Sergueev,  S. M. Sharada,  Hengyuan Shen,  
 W. Skomorowski,  D. W. Small,  C. J. Stein,  Yingli Su,  Yu-Chuan Su,  
 E. J. Sundstrom,  Zhen Tao,  J. Thirman,  Hung-Yi Tsai,  T. Tsuchimochi,  
 N. M. Tubman,  C. Utku,  S. P. Veccham,  O. Vydrov,  J. Wenzel,  
 Jonathan Wong,  J. Witte,  A. Yamada,  Chou-Hsun Yang,  Kun Yao,  
 S. Yeganeh,  S. R. Yost,  A. Zech,  F. Zeller,  Igor Ying Zhang,  
 Xing Zhang,  Yu Zhang,  D. Zuev,  A. Aspuru-Guzik,  A. T. Bell,  
 N. A. Besley,  K. B. Bravaya,  B. R. Brooks,  D. Casanova,  Jeng-Da Chai,  
 Hsing-Ta Chen,  S. Coriani,  C. J. Cramer,  A. E. DePrince, III,  
 R. A. DiStasio Jr.,  A. Dreuw,  B. D. Dunietz,  T. R. Furlani,  
 W. A. Goddard III,  S. Grimme,  S. Hammes-Schiffer,  T. Head-Gordon,  
 W. J. Hehre,  Chao-Ping Hsu,  T.-C. Jagau,  Yousung Jung,  A. Klamt,  
 Jing Kong,  D. S. Lambrecht,  Xiangyuan Li,  WanZhen Liang,  N. J. Mayhall,  
 C. W. McCurdy,  J. B. Neaton,  T. Neudecker,  C. Ochsenfeld,  
 J. A. Parkhill,  R. Peverati,  V. A. Rassolov,  Haisheng Ren,  Yihan Shao,  
 L. V. Slipchenko,  R. P. Steele,  J. E. Subotnik,  A. J. W. Thom,  
 A. Tkatchenko,  D. G. Truhlar,  T. Van Voorhis,  Fan Wang,  
 T. A. Wesolowski,  K. B. Whaley,  H. L. Woodcock III,  P. M. Zimmerman,  
 S. Faraji,  P. M. W. Gill,  M. Head-Gordon,  J. M. Herbert,  A. I. Krylov

 Contributors to earlier versions of Q-Chem not listed above: 
 R. D. Adamson,  B. Austin,  R. Baer,  J. Baker,  G. J. O. Beran,  
 K. Brandhorst,  S. T. Brown,  E. F. C. Byrd,  Arup K. Chakraborty,  
 G. K. L. Chan,  Chun-Min Chang,  Yunqing Chen,  C.-L. Cheng,  
 Siu Hung Chien,  D. M. Chipman,  D. L. Crittenden,  H. Dachsel,  
 R. J. Doerksen,  A. D. Dutoi,  R. G. Edgar,  J. Fosso-Tande,  
 L. Fusti-Molnar,  D. Ghosh,  A. Ghysels,  A. Golubeva-Zadorozhnaya,  
 J. Gonthier,  M. S. Gordon,  S. R. Gwaltney,  G. Hawkins,  J. E. Herr,  
 A. Heyden,  S. Hirata,  E. G. Hohenstein,  G. Kedziora,  F. J. Keil,  
 C. Kelley,  Jihan Kim,  R. A. King,  R. Z. Khaliullin,  P. P. Korambath,  
 W. Kurlancheek,  A. Laurent,  A. M. Lee,  M. S. Lee,  S. V. Levchenko,  
 Ching Yeh Lin,  D. Liotard,  E. Livshits,  R. C. Lochan,  I. Lotan,  
 L. A. Martinez-Martinez,  P. E. Maslen,  N. Nair,  D. P. O'Neill,  
 D. Neuhauser,  E. Neuscamman,  C. M. Oana,  R. Olivares-Amaya,  R. Olson,  
 T. M. Perrine,  B. Peters,  P. A. Pieniazek,  A. Prociuk,  Y. M. Rhee,  
 J. Ritchie,  M. A. Rohrdanz,  E. Rosta,  N. J. Russ,  H. F. Schaefer III,  
 M. W. Schmidt,  N. E. Schultz,  S. Sharma,  N. Shenvi,  C. D. Sherrill,  
 A. C. Simmonett,  A. Sodt,  T. Stein,  D. Stuck,  K. S. Thanthiriwatte,  
 V. Vanovschi,  L. Vogt,  Tao Wang,  A. Warshel,  M. A. Watson,  
 C. F. Williams,  Q. Wu,  X. Xu,  Jun Yang,  W. Zhang,  Yan Zhao

   Please cite Q-Chem as follows:
  "Software for the frontiers of quantum chemistry:
   An overview of developments in the Q-Chem 5 package"
   J. Chem. Phys. 155, 084801 (2021)
   https://doi.org/10.1063/5.0055522 (open access)

 Q-Chem 6.0.2 for Intel X86 EM64T Linux

 Parts of Q-Chem use Armadillo 9.900.5 (Nocturnal Misbehaviour).
 http://arma.sourceforge.net/

 Q-Chem begins on Fri May 31 09:06:57 2024  

 Host: 
0

     Scratch files written to /scratch/qchem_scratch/qchem44671//
 Dec722 |scratch|qcdevops|jenkins|workspace|build_RNUM 8907   
 Processing $rem in /opt/qchem/6.0.2/config/preferences:
 Processing $rem in /home/cooksy_group/.qchemrc:
 Symmetry turned off for PCM/SM12/SMD calculation

 Checking the input file for inconsistencies... 	...done.

--------------------------------------------------------------
User input:
--------------------------------------------------------------
$molecule
-3 4
N   -2.3939035    2.4584826   -0.9116235
C   -4.3995999   -2.3214721   -0.0527749
H   -4.9170090   -2.8664917    0.7593761
N   -2.9679864   -2.3209286    0.2205921
H   -2.4551808   -2.8631167   -0.4757289
C   -4.6320140   -3.1276130   -1.3692394
O   -5.8215179   -3.1961023   -1.7663187
C   -2.3888738   -1.9233643    1.3704294
O   -3.0169515   -1.3420855    2.2714751
C   -1.9636020    3.4591271   -0.1591511
C   -2.6658380    4.7883583   -0.1354187
H   -2.8168206    5.1868291   -1.1492810
H   -3.6517719    4.7028718    0.3484069
H   -2.0509925    5.4913773    0.4398991
C   -0.9172090   -2.2800691    1.5298857
H   -0.5634997   -2.9272526    0.7180050
H   -0.8378161   -2.8391439    2.4756007
C    0.0400327   -1.0685583    1.6116615
C   -0.4060138   -0.1107988    2.7398203
C    1.4808662   -1.5311860    1.9538487
H    1.4501395   -2.2220536    2.8100290
H    2.0611451   -0.6467531    2.2498659
C    2.1682504   -2.2191686    0.7851465
O    1.7075507   -3.2301684    0.2278483
N    3.3197012   -1.6402063    0.3955854
H    3.7563875   -0.9077129    0.9521772
C    5.5979879   -1.5042761   -0.4768532
O    6.4634249   -1.8511122   -1.3141584
N    2.3582447    2.0830539   -0.7868753
C    2.7086443    2.0996125    0.4991128
C    4.1549563    2.2736752    0.8832125
H    4.1903359    2.6695093    1.9070425
H    4.6832178    1.3045794    0.8609401
H    4.6869656    2.9618077    0.2115348
C    3.2703611    2.0552899   -1.9327607
H    2.6467322    2.3105894   -2.8002610
H    4.0221197    2.8500074   -1.8141563
C    3.9537823    0.6970894   -2.1069599
H    4.6293135    0.7521254   -2.9793497
H    4.5934582    0.5285290   -1.2310317
C    2.9680785   -0.4650345   -2.2540869
H    2.1670887   -0.3396453   -1.5097013
H    2.4807393   -0.4106643   -3.2441352
C    3.5897854   -1.8549366   -2.0755904
H    2.8097174   -2.6083807   -2.2698076
H    4.4023260   -2.0274704   -2.7998043
C    4.1789700   -2.1215695   -0.6698161
H    4.2977063   -3.2150309   -0.5701140
C   -4.6677767    1.4661535   -1.0032820
H   -4.6828021    1.7114098    0.0738176
H   -5.6679099    1.7207885   -1.3945283
C   -3.6412942    2.3944876   -1.6700226
H   -4.0362899    3.4135814   -1.7547919
H   -3.3908476    2.0404284   -2.6835039
C   -4.3766180   -0.0298390   -1.1923390
H   -3.2903139   -0.1684679   -1.1431491
H   -4.7004469   -0.3483143   -2.1995162
C   -5.0199980   -0.9159367   -0.1267740
H   -4.9004893   -0.4401266    0.8588465
H   -6.0988093   -1.0441436   -0.3088772
O   -3.6103077   -3.6376433   -1.9108764
O    5.7528984   -0.7195717    0.5073198
O    0.0397552   -0.3920713    0.3739233
Fe   -0.1630912    1.4244572    0.4630267
O   -0.7271283    1.0828265    2.3240960
O   -1.6983865    1.2870129   -0.8396505
O   -0.9270563    3.2707067    0.5781170
O    1.0399795    1.9056909   -1.0956899
O   -0.3974077   -0.4580552    3.9226055
O    1.8114208    1.9628708    1.3889389
$end

$rem
BASIS  =  gen
CIS_N_ROOTS  =  100
CORRELATION  =  TPSS
EXCHANGE  =  TPSSH
GUI  =  2
JOB_TYPE  =  SP
SCF_CONVERGENCE  =  8
SOLVENT_METHOD  =  PCM
UNRESTRICTED  =  1
MAX_SCF_CYCLES = 200
MEM_TOTAL  =  50000
$end

$pcm
THEORY  CPCM
$end

$solvent
DIELECTRIC  78.39
$end

$van_der_waals
26   2.44
$end

!----------------------------------------------------------------------
! Basis Set Exchange
! Basis set: aug-cc-pVDZ
!----------------------------------------------------------------------

$rem
BASIS GEN
PURECART 11
$end

$basis
H     0
S   4   1.00
1.301000D+01           1.968500D-02
1.962000D+00           1.379770D-01
4.446000D-01           4.781480D-01
1.220000D-01           5.012400D-01
S   1   1.00
1.220000D-01           1.000000D+00
S   1   1.00
0.0297400              1.0000000
P   1   1.00
7.270000D-01           1.0000000
P   1   1.00
0.1410000              1.0000000
****
C     0
S   9   1.00
6.665000D+03           6.920000D-04
1.000000D+03           5.329000D-03
2.280000D+02           2.707700D-02
6.471000D+01           1.017180D-01
2.106000D+01           2.747400D-01
7.495000D+00           4.485640D-01
2.797000D+00           2.850740D-01
5.215000D-01           1.520400D-02
1.596000D-01          -3.191000D-03
S   9   1.00
6.665000D+03          -1.460000D-04
1.000000D+03          -1.154000D-03
2.280000D+02          -5.725000D-03
6.471000D+01          -2.331200D-02
2.106000D+01          -6.395500D-02
7.495000D+00          -1.499810D-01
2.797000D+00          -1.272620D-01
5.215000D-01           5.445290D-01
1.596000D-01           5.804960D-01
S   1   1.00
1.596000D-01           1.000000D+00
S   1   1.00
0.0469000              1.0000000
P   4   1.00
9.439000D+00           3.810900D-02
2.002000D+00           2.094800D-01
5.456000D-01           5.085570D-01
1.517000D-01           4.688420D-01
P   1   1.00
1.517000D-01           1.000000D+00
P   1   1.00
0.0404100              1.0000000
D   1   1.00
5.500000D-01           1.0000000
D   1   1.00
0.1510000              1.0000000
****
N     0
S   9   1.00
9.046000D+03           7.000000D-04
1.357000D+03           5.389000D-03
3.093000D+02           2.740600D-02
8.773000D+01           1.032070D-01
2.856000D+01           2.787230D-01
1.021000D+01           4.485400D-01
3.838000D+00           2.782380D-01
7.466000D-01           1.544000D-02
2.248000D-01          -2.864000D-03
S   9   1.00
9.046000D+03          -1.530000D-04
1.357000D+03          -1.208000D-03
3.093000D+02          -5.992000D-03
8.773000D+01          -2.454400D-02
2.856000D+01          -6.745900D-02
1.021000D+01          -1.580780D-01
3.838000D+00          -1.218310D-01
7.466000D-01           5.490030D-01
2.248000D-01           5.788150D-01
S   1   1.00
2.248000D-01           1.000000D+00
S   1   1.00
0.0612400              1.0000000
P   4   1.00
1.355000D+01           3.991900D-02
2.917000D+00           2.171690D-01
7.973000D-01           5.103190D-01
2.185000D-01           4.622140D-01
P   1   1.00
2.185000D-01           1.000000D+00
P   1   1.00
0.0561100              1.0000000
D   1   1.00
8.170000D-01           1.0000000
D   1   1.00
0.2300000              1.0000000
****
O     0
S   9   1.00
1.172000D+04           7.100000D-04
1.759000D+03           5.470000D-03
4.008000D+02           2.783700D-02
1.137000D+02           1.048000D-01
3.703000D+01           2.830620D-01
1.327000D+01           4.487190D-01
5.025000D+00           2.709520D-01
1.013000D+00           1.545800D-02
3.023000D-01          -2.585000D-03
S   9   1.00
1.172000D+04          -1.600000D-04
1.759000D+03          -1.263000D-03
4.008000D+02          -6.267000D-03
1.137000D+02          -2.571600D-02
3.703000D+01          -7.092400D-02
1.327000D+01          -1.654110D-01
5.025000D+00          -1.169550D-01
1.013000D+00           5.573680D-01
3.023000D-01           5.727590D-01
S   1   1.00
3.023000D-01           1.000000D+00
S   1   1.00
0.0789600              1.0000000
P   4   1.00
1.770000D+01           4.301800D-02
3.854000D+00           2.289130D-01
1.046000D+00           5.087280D-01
2.753000D-01           4.605310D-01
P   1   1.00
2.753000D-01           1.000000D+00
P   1   1.00
0.0685600              1.0000000
D   1   1.00
1.185000D+00           1.0000000
D   1   1.00
0.3320000              1.0000000
****
Fe     0
S   20   1.00
4.316265D+06           8.048803D-06
6.463424D+05           6.258306D-05
1.470897D+05           3.290239D-04
4.166152D+04           1.387355D-03
1.359077D+04           5.023256D-03
4.905750D+03           1.610140D-02
1.912746D+03           4.590034D-02
7.926043D+02           1.136154D-01
3.448065D+02           2.283869D-01
1.558999D+02           3.221159D-01
7.223091D+01           2.383661D-01
3.272506D+01           7.404667D-02
1.566762D+01           9.214197D-02
7.503483D+00           9.339790D-02
3.312223D+00           1.573965D-02
1.558471D+00          -4.186682D-04
6.839140D-01           5.376318D-05
1.467570D-01          -3.816654D-05
7.058300D-02           4.319603D-05
3.144900D-02          -3.401019D-06
S   20   1.00
4.316265D+06          -4.155954D-06
6.463424D+05          -3.231401D-05
1.470897D+05          -1.699525D-04
4.166152D+04          -7.171369D-04
1.359077D+04          -2.603625D-03
4.905750D+03          -8.399109D-03
1.912746D+03          -2.434109D-02
7.926043D+02          -6.251948D-02
3.448065D+02          -1.365929D-01
1.558999D+02          -2.312707D-01
7.223091D+01          -2.383734D-01
3.272506D+01           3.123837D-02
1.566762D+01           5.086818D-01
7.503483D+00           4.987695D-01
3.312223D+00           9.033552D-02
1.558471D+00          -6.005337D-03
6.839140D-01           2.312454D-04
1.467570D-01          -5.643680D-04
7.058300D-02           4.992260D-04
3.144900D-02          -1.015293D-04
S   20   1.00
4.316265D+06           9.532178D-07
6.463424D+05           7.414605D-06
1.470897D+05           3.898393D-05
4.166152D+04           1.647152D-04
1.359077D+04           5.985980D-04
4.905750D+03           1.942390D-03
1.912746D+03           5.687237D-03
7.926043D+02           1.501329D-02
3.448065D+02           3.452455D-02
1.558999D+02           6.495820D-02
7.223091D+01           7.716194D-02
3.272506D+01          -1.873411D-02
1.566762D+01          -3.009185D-01
7.503483D+00          -4.554661D-01
3.312223D+00           1.286463D-01
1.558471D+00           7.183316D-01
6.839140D-01           4.051743D-01
1.467570D-01           2.168227D-02
7.058300D-02          -8.343566D-03
3.144900D-02           3.658979D-03
S   20   1.00
4.316265D+06          -2.063008D-07
6.463424D+05          -1.604169D-06
1.470897D+05          -8.438437D-06
4.166152D+04          -3.563151D-05
1.359077D+04          -1.295998D-04
4.905750D+03          -4.201534D-04
1.912746D+03          -1.231954D-03
7.926043D+02          -3.248922D-03
3.448065D+02          -7.493717D-03
1.558999D+02          -1.410102D-02
7.223091D+01          -1.691600D-02
3.272506D+01           4.218996D-03
1.566762D+01           6.833810D-02
7.503483D+00           1.098201D-01
3.312223D+00          -4.009005D-02
1.558471D+00          -2.174739D-01
6.839140D-01          -2.465135D-01
1.467570D-01           2.731435D-01
7.058300D-02           5.748321D-01
3.144900D-02           3.012713D-01
S   20   1.00
4.316265D+06          -4.009367D-07
6.463424D+05          -3.189255D-06
1.470897D+05          -1.623079D-05
4.166152D+04          -7.157920D-05
1.359077D+04          -2.463958D-04
4.905750D+03          -8.544907D-04
1.912746D+03          -2.307593D-03
7.926043D+02          -6.728292D-03
3.448065D+02          -1.366165D-02
1.558999D+02          -3.062240D-02
7.223091D+01          -2.631137D-02
3.272506D+01          -9.760183D-03
1.566762D+01           1.801906D-01
7.503483D+00           1.529634D-01
3.312223D+00           5.505413D-02
1.558471D+00          -9.551364D-01
6.839140D-01           2.586813D-01
1.467570D-01           1.834049D+00
7.058300D-02          -9.333240D-01
3.144900D-02          -6.981605D-01
S   1   1.00
3.144900D-02           1.000000D+00
S   1   1.00
1.401000D-02           1.000000D+00
P   16   1.00
1.774569D+04           4.100000D-05
4.200721D+03           3.690000D-04
1.364429D+03           2.129000D-03
5.220806D+02           9.369000D-03
2.214595D+02           3.309700D-02
1.009096D+02           9.443100D-02
4.840115D+01           2.080770D-01
2.398536D+01           3.323330D-01
1.218250D+01           3.329870D-01
6.242298D+00           1.568430D-01
3.110944D+00           2.154900D-02
1.509958D+00          -2.095000D-03
7.108450D-01          -1.739000D-03
2.731900D-01          -3.000000D-04
1.042330D-01           2.900000D-05
3.829100D-02          -1.100000D-05
P   16   1.00
1.774569D+04          -1.500000D-05
4.200721D+03          -1.300000D-04
1.364429D+03          -7.510000D-04
5.220806D+02          -3.329000D-03
2.214595D+02          -1.191200D-02
1.009096D+02          -3.493300D-02
4.840115D+01          -7.998900D-02
2.398536D+01          -1.346360D-01
1.218250D+01          -1.385980D-01
6.242298D+00           3.027800D-02
3.110944D+00           3.332160D-01
1.509958D+00           4.561530D-01
7.108450D-01           2.850510D-01
2.731900D-01           4.614400D-02
1.042330D-01          -3.249000D-03
3.829100D-02           1.357000D-03
P   16   1.00
1.774569D+04           5.000000D-06
4.200721D+03           4.200000D-05
1.364429D+03           2.410000D-04
5.220806D+02           1.085000D-03
2.214595D+02           3.831000D-03
1.009096D+02           1.142300D-02
4.840115D+01           2.579200D-02
2.398536D+01           4.481800D-02
1.218250D+01           4.459800D-02
6.242298D+00          -1.117700D-02
3.110944D+00          -1.381340D-01
1.509958D+00          -1.882850D-01
7.108450D-01          -1.073990D-01
2.731900D-01           4.448630D-01
1.042330D-01           6.402390D-01
3.829100D-02           6.445700D-02
P   16   1.00
1.774569D+04           3.000000D-06
4.200721D+03           2.900000D-05
1.364429D+03           1.650000D-04
5.220806D+02           7.340000D-04
2.214595D+02           2.626000D-03
1.009096D+02           7.725000D-03
4.840115D+01           1.773300D-02
2.398536D+01           3.005500D-02
1.218250D+01           3.109400D-02
6.242298D+00          -1.004800D-02
3.110944D+00          -8.830600D-02
1.509958D+00          -1.298240D-01
7.108450D-01          -7.693700D-02
2.731900D-01           2.126610D-01
1.042330D-01           5.730610D-01
3.829100D-02           3.696510D-01
P   1   1.00
3.829100D-02           1.000000D+00
P   1   1.00
1.407000D-02           1.000000D+00
D   8   1.00
1.133440D+02           3.530000D-03
3.364140D+01           2.578400D-02
1.233100D+01           9.911900D-02
4.994780D+00           2.390730D-01
2.072800D+00           3.571990D-01
8.307530D-01           3.621880D-01
3.091780D-01           2.364610D-01
1.001300D-01           6.011800D-02
D   8   1.00
1.133440D+02          -3.890000D-03
3.364140D+01          -2.844200D-02
1.233100D+01          -1.124290D-01
4.994780D+00          -2.742570D-01
2.072800D+00          -3.155460D-01
8.307530D-01           5.710900D-02
3.091780D-01           5.636040D-01
1.001300D-01           3.846370D-01
D   1   1.00
1.001300D-01           1.000000D+00
D   1   1.00
3.243000D-02           1.000000D+00
F   2   1.00
3.224300D+00           4.222490D-01
7.758000D-01           7.714680D-01
F   1   1.00
2.749000D-01           1.000000D+00
****
$end


--------------------------------------------------------------
 ----------------------------------------------------------------
             Standard Nuclear Orientation (Angstroms)
    I     Atom           X                Y                Z
 ----------------------------------------------------------------
    1      N      -2.3939035000     2.4584826000    -0.9116235000
    2      C      -4.3995999000    -2.3214721000    -0.0527749000
    3      H      -4.9170090000    -2.8664917000     0.7593761000
    4      N      -2.9679864000    -2.3209286000     0.2205921000
    5      H      -2.4551808000    -2.8631167000    -0.4757289000
    6      C      -4.6320140000    -3.1276130000    -1.3692394000
    7      O      -5.8215179000    -3.1961023000    -1.7663187000
    8      C      -2.3888738000    -1.9233643000     1.3704294000
    9      O      -3.0169515000    -1.3420855000     2.2714751000
   10      C      -1.9636020000     3.4591271000    -0.1591511000
   11      C      -2.6658380000     4.7883583000    -0.1354187000
   12      H      -2.8168206000     5.1868291000    -1.1492810000
   13      H      -3.6517719000     4.7028718000     0.3484069000
   14      H      -2.0509925000     5.4913773000     0.4398991000
   15      C      -0.9172090000    -2.2800691000     1.5298857000
   16      H      -0.5634997000    -2.9272526000     0.7180050000
   17      H      -0.8378161000    -2.8391439000     2.4756007000
   18      C       0.0400327000    -1.0685583000     1.6116615000
   19      C      -0.4060138000    -0.1107988000     2.7398203000
   20      C       1.4808662000    -1.5311860000     1.9538487000
   21      H       1.4501395000    -2.2220536000     2.8100290000
   22      H       2.0611451000    -0.6467531000     2.2498659000
   23      C       2.1682504000    -2.2191686000     0.7851465000
   24      O       1.7075507000    -3.2301684000     0.2278483000
   25      N       3.3197012000    -1.6402063000     0.3955854000
   26      H       3.7563875000    -0.9077129000     0.9521772000
   27      C       5.5979879000    -1.5042761000    -0.4768532000
   28      O       6.4634249000    -1.8511122000    -1.3141584000
   29      N       2.3582447000     2.0830539000    -0.7868753000
   30      C       2.7086443000     2.0996125000     0.4991128000
   31      C       4.1549563000     2.2736752000     0.8832125000
   32      H       4.1903359000     2.6695093000     1.9070425000
   33      H       4.6832178000     1.3045794000     0.8609401000
   34      H       4.6869656000     2.9618077000     0.2115348000
   35      C       3.2703611000     2.0552899000    -1.9327607000
   36      H       2.6467322000     2.3105894000    -2.8002610000
   37      H       4.0221197000     2.8500074000    -1.8141563000
   38      C       3.9537823000     0.6970894000    -2.1069599000
   39      H       4.6293135000     0.7521254000    -2.9793497000
   40      H       4.5934582000     0.5285290000    -1.2310317000
   41      C       2.9680785000    -0.4650345000    -2.2540869000
   42      H       2.1670887000    -0.3396453000    -1.5097013000
   43      H       2.4807393000    -0.4106643000    -3.2441352000
   44      C       3.5897854000    -1.8549366000    -2.0755904000
   45      H       2.8097174000    -2.6083807000    -2.2698076000
   46      H       4.4023260000    -2.0274704000    -2.7998043000
   47      C       4.1789700000    -2.1215695000    -0.6698161000
   48      H       4.2977063000    -3.2150309000    -0.5701140000
   49      C      -4.6677767000     1.4661535000    -1.0032820000
   50      H      -4.6828021000     1.7114098000     0.0738176000
   51      H      -5.6679099000     1.7207885000    -1.3945283000
   52      C      -3.6412942000     2.3944876000    -1.6700226000
   53      H      -4.0362899000     3.4135814000    -1.7547919000
   54      H      -3.3908476000     2.0404284000    -2.6835039000
   55      C      -4.3766180000    -0.0298390000    -1.1923390000
   56      H      -3.2903139000    -0.1684679000    -1.1431491000
   57      H      -4.7004469000    -0.3483143000    -2.1995162000
   58      C      -5.0199980000    -0.9159367000    -0.1267740000
   59      H      -4.9004893000    -0.4401266000     0.8588465000
   60      H      -6.0988093000    -1.0441436000    -0.3088772000
   61      O      -3.6103077000    -3.6376433000    -1.9108764000
   62      O       5.7528984000    -0.7195717000     0.5073198000
   63      O       0.0397552000    -0.3920713000     0.3739233000
   64      Fe     -0.1630912000     1.4244572000     0.4630267000
   65      O      -0.7271283000     1.0828265000     2.3240960000
   66      O      -1.6983865000     1.2870129000    -0.8396505000
   67      O      -0.9270563000     3.2707067000     0.5781170000
   68      O       1.0399795000     1.9056909000    -1.0956899000
   69      O      -0.3974077000    -0.4580552000     3.9226055000
   70      O       1.8114208000     1.9628708000     1.3889389000
 ----------------------------------------------------------------
 Nuclear Repulsion Energy =        6091.93721953 hartrees
 There are      163 alpha and      160 beta electrons
 Requested basis set is non-standard
 There are 520 shells and 1226 basis functions

 Total QAlloc Memory Limit  50000 MB
 Mega-Array Size       188 MB
 MEM_STATIC part       192 MB

 Using C-PCM dielectric factor f(eps) = (eps-1)/eps = 0.987243
No default van der Waals radius is available for Z = 26
	Found R = 2.4400 A in the $van_der_waals section
 Discretize the solute cavity surface with Lebedev spheres
	Using 110 Lebedev grid points for each H atom
	Using 194 Lebedev grid points for other atoms
	Atomic van der Waals radii (Bondi set) will be scaled by 1.20
 Using smooth SwiG surface discretization
 Remove points where switching function is < 1.0e-08
 Keep 4110 surface tesserae and discard 6950 interior tesserae
 Molecular Surface Area = 523.882 Angst**2

 A cutoff of  1.0D-12 yielded 118306 shell pairs
 There are    625704 function pairs (    712999 Cartesian)
 Smallest overlap matrix eigenvalue = 9.59E-07
 Linear dependence detected in AO basis
 Tighter screening thresholds may be required for diffuse basis sets
 Use S2THRESH > 14 and THRESH = 14 in case of SCF convergence issues
 Number of orthogonalized atomic orbitals = 1225
 Maximum deviation from orthogonality = 1.944E-10

 Scale SEOQF with 1.000000e-02/1.000000e-02/1.000000e-01

 Standard Electronic Orientation quadrupole field applied
 Nucleus-field energy     =    -0.0000000518 hartrees
 ================ Generating on-the-fly SAD Guess ================
 Attempting to make child job directory: /scratch/qchem_scratch/qchem44671//Frg1/
 Attempting to make child job directory: /scratch/qchem_scratch/qchem44671//Frg2/
 Attempting to make child job directory: /scratch/qchem_scratch/qchem44671//Frg3/
 Attempting to make child job directory: /scratch/qchem_scratch/qchem44671//Frg4/
 Attempting to make child job directory: /scratch/qchem_scratch/qchem44671//Frg5/
 Creating input file /scratch/qchem_scratch/qchem44671/Frg1.input
 using default PutDataFrgm: nothing
 calling putenv with: QCSCRATCH=/scratch/qchem_scratch/qchem44671/ 
 Spawning Job For Fragment 0
 Done Job For Fragment 0
 calling putenv with: QCSCRATCH=/scratch/qchem_scratch 
 calling putenv with: QCTHREADS=16 
 Creating input file /scratch/qchem_scratch/qchem44671/Frg2.input
 using default PutDataFrgm: nothing
 calling putenv with: QCSCRATCH=/scratch/qchem_scratch/qchem44671/ 
 Spawning Job For Fragment 1
 Done Job For Fragment 1
 calling putenv with: QCSCRATCH=/scratch/qchem_scratch 
 calling putenv with: QCTHREADS=16 
 Creating input file /scratch/qchem_scratch/qchem44671/Frg3.input
 using default PutDataFrgm: nothing
 calling putenv with: QCSCRATCH=/scratch/qchem_scratch/qchem44671/ 
 Spawning Job For Fragment 2
 Done Job For Fragment 2
 calling putenv with: QCSCRATCH=/scratch/qchem_scratch 
 calling putenv with: QCTHREADS=16 
 Creating input file /scratch/qchem_scratch/qchem44671/Frg4.input
 using default PutDataFrgm: nothing
 calling putenv with: QCSCRATCH=/scratch/qchem_scratch/qchem44671/ 
 Spawning Job For Fragment 3
 Done Job For Fragment 3
 calling putenv with: QCSCRATCH=/scratch/qchem_scratch 
 calling putenv with: QCTHREADS=16 
 Creating input file /scratch/qchem_scratch/qchem44671/Frg5.input
 using default PutDataFrgm: nothing
 calling putenv with: QCSCRATCH=/scratch/qchem_scratch/qchem44671/ 
 Spawning Job For Fragment 4
 Done Job For Fragment 4
 calling putenv with: QCSCRATCH=/scratch/qchem_scratch 
 calling putenv with: QCTHREADS=16 
 Time for running child jobs:  CPU 0.02 s  wall 575.35 s
 ============= Method Specific SAD Guess Constructed =============
 Guess from on-the-fly superposition of atomic densities
 Warning: Energy on first SCF cycle will be non-variational

 -----------------------------------------------------------------------
  General SCF calculation program by
  Eric Jon Sundstrom, Paul Horn, Yuezhi Mao, Dmitri Zuev, Alec White,
  David Stuck, Shaama M.S., Shane Yost, Joonho Lee, David Small,
  Daniel Levine, Susi Lehtola, Hugh Burton, Evgeny Epifanovsky,
  Bang C. Huynh
 -----------------------------------------------------------------------
 Exchange:     0.1000 Hartree-Fock + 0.9000 TPSS
 Correlation:  1.0000 TPSS
 Using SG-2 standard quadrature grid
 using 16 threads for integral computing
 -------------------------------------------------------
 OpenMP Integral computing Module                
 Release: version 1.0, May 2013, Q-Chem Inc. Pittsburgh 
 -------------------------------------------------------
 C-PCM solvent model [f = (eps-1)/eps], solve by matrix inversion
 A unrestricted SCF calculation will be
 performed using DIIS
 SCF converges when DIIS error is below 1.0e-08
 ---------------------------------------
  Cycle       Energy         DIIS error
 ---------------------------------------
    1   -3331.2350489880      9.88e-03  
    2   -3316.7298433321      1.49e-03  
    3   -3304.6023366874      5.07e-03  
    4   -3306.0040855320      3.50e-03  
    5   -3316.1339847153      2.13e-03  
    6   -3315.9203721381      2.08e-03  
    7   -3316.0094347582      2.13e-03  
    8   -3315.8089972467      2.17e-03  
    9   -3315.8016585734      2.17e-03  
   10   -3315.7503309216      2.19e-03  
   11   -3315.6782543134      2.22e-03  
   12   -3315.6693623137      2.22e-03  
   13   -3315.6430343660      2.24e-03  
   14   -3315.6165205370      2.25e-03  
   15   -3315.6283023160      2.25e-03  
   16   -3315.6234986550      2.25e-03  
   17   -3315.5788190325      2.27e-03  
   18   -3307.2995899439      4.17e-03  
   19   -3309.3380637294      3.78e-03  
   20   -3299.8453113329      4.20e-03  
   21   -3314.7766493338      2.69e-03  
   22   -3315.1047859954      2.57e-03  
   23   -3315.0842395695      2.57e-03  
   24   -3314.9744876002      2.61e-03  
   25   -3314.5843079436      2.80e-03  
   26   -3315.2901630929      2.39e-03  
   27   -3316.9200973448      1.53e-03  
   28   -3316.7499234066      1.60e-03  
   29   -3317.2802468182      1.26e-03  
   30   -3317.5139748396      1.02e-03  
   31   -3317.8216949077      6.38e-04  
   32   -3317.9677478859      3.70e-04  
   33   -3318.0332121965      1.59e-04  
   34   -3318.0458262737      8.63e-05  
   35   -3318.0500209418      3.55e-05  
   36   -3318.0507491875      2.01e-05  
   37   -3318.0509853425      1.03e-05  
   38   -3318.0511075469      5.87e-06  
   39   -3318.0511816694      3.99e-06  
   40   -3318.0512150338      2.46e-06  
   41   -3318.0512301268      1.83e-06  
   42   -3318.0512526169      1.67e-06  
   43   -3318.0512655480      1.17e-06  
   44   -3318.0512720938      7.19e-07  
   45   -3318.0512758989      4.61e-07  
   46   -3318.0512776168      3.20e-07  
   47   -3318.0512781217      2.87e-07  
   48   -3318.0512786257      2.26e-07  
   49   -3318.0512788488      1.61e-07  
   50   -3318.0512792675      1.48e-07  
   51   -3318.0512795881      1.35e-07  
   52   -3318.0512798061      9.06e-08  
   53   -3318.0512798547      6.37e-08  
   54   -3318.0512798839      4.95e-08  
   55   -3318.0512798897      2.32e-08  
   56   -3318.0512798924      2.23e-08  
   57   -3318.0512798911      9.26e-09  Convergence criterion met
 ---------------------------------------
 SCF time:   CPU 884383.94s  wall 59763.00s 
<S^2> =          3.816668164

************** Final PCM Free Energy Summary **************
 G_electrostatic  =      -0.52223679 hartree =    -327.70852899 kcal/mol
 G_cavitation     =       0.00000000 hartree =       0.00000000 kcal/mol
 G_dispersion     =       0.00000000 hartree =       0.00000000 kcal/mol
 G_repulsion      =       0.00000000 hartree =       0.00000000 kcal/mol
 --------------------------------------------------
 Non-electrostatic Free Energy =       0.00000000 hartree =       0.00000000 kcal/mol
 Total                         =      -0.52223679 hartree =    -327.70852899 kcal/mol
 --------------------------------------------------
 SCF Energy (H0 + V/2)                       =   -3318.05127989 
 Solute Internal Energy (H0)                 =   -3317.52904311 
 Total Free Energy (H0 + V/2 + non-elec)     =   -3318.05127989 hartree
                                             = -2082108.60339534 kcal/mol
***********************************************************

 SCF   energy in the final basis set =    -3318.0512798911
 Total energy in the final basis set =    -3318.0512798911
 
 MAX_CIS_SUBSPACE fits in available memory
 Direct TDDFT/TDA calculation will be performed
 Exchange:     0.1000 Hartree-Fock + 0.9000 TPSS
 Correlation:  1.0000 TPSS
 Using SG-2 standard quadrature grid
 Adding PCM contribution to the XC response (LR-PCM)
 CIS energy converged when residual is below 10e- 6
 ---------------------------------------------------
 Iter    Rts Conv    Rts Left    Ttl Dev     Max Dev
 ---------------------------------------------------
   1         0         100      0.005883    0.000524
   2         0         100      0.001670    0.000059
   3         2          98      0.000578    0.000029
   4        67          33      0.000138    0.000010
   5        94           6      0.000040    0.000003
   6       100           0      0.000026    0.000001    Roots Converged
 ---------------------------------------------------
 
 ---------------------------------------------------
         TDDFT/TDA Excitation Energies              
 ---------------------------------------------------

 Excited state   1: excitation energy (eV) =    0.8142
 Total energy for state  1:                 -3318.02135810 au
    <S**2>     :  3.8151
    Trans. Mom.: -0.0147 X   0.0434 Y  -0.0698 Z
    Strength   :     0.0001390319
    S(    2) --> V(    1) amplitude = -0.3307 alpha
    D(  159) --> S(    1) amplitude = -0.2696 beta
    D(  159) --> S(    2) amplitude = -0.2890 beta
    D(  160) --> S(    1) amplitude =  0.5626 beta
    D(  160) --> S(    2) amplitude =  0.5617 beta

 Excited state   2: excitation energy (eV) =    0.9615
 Total energy for state  2:                 -3318.01594601 au
    <S**2>     :  3.8780
    Trans. Mom.: -0.0241 X  -0.0140 Y   0.0205 Z
    Strength   :     0.0000281679
    S(    2) --> V(    1) amplitude =  0.2104 alpha
    D(  159) --> S(    1) amplitude = -0.3108 beta
    D(  159) --> S(    2) amplitude =  0.2542 beta
    D(  160) --> S(    1) amplitude =  0.6382 beta
    D(  160) --> S(    2) amplitude = -0.5359 beta

 Excited state   3: excitation energy (eV) =    1.3776
 Total energy for state  3:                 -3318.00065467 au
    <S**2>     :  4.2109
    Trans. Mom.:  0.0837 X   0.0036 Y   0.1429 Z
    Strength   :     0.0009265083
    D(  159) --> V(    1) amplitude = -0.1501 alpha
    S(    1) --> V(    1) amplitude = -0.1561 alpha
    S(    2) --> V(    1) amplitude =  0.7478 alpha
    S(    3) --> V(    1) amplitude =  0.2855 alpha
    D(  159) --> S(    2) amplitude = -0.1617 beta
    D(  160) --> S(    2) amplitude =  0.3031 beta
    D(  160) --> V(    1) amplitude =  0.2375 beta

 Excited state   4: excitation energy (eV) =    1.3916
 Total energy for state  4:                 -3318.00013990 au
    <S**2>     :  5.1290
    Trans. Mom.: -0.1868 X   0.0628 Y  -0.0599 Z
    Strength   :     0.0014464430
    D(  147) --> V(    1) amplitude =  0.2380 alpha
    D(  151) --> V(    1) amplitude = -0.1731 alpha
    D(  154) --> V(    1) amplitude =  0.1892 alpha
    D(  157) --> V(    1) amplitude =  0.2479 alpha
    D(  159) --> V(    1) amplitude = -0.3628 alpha
    S(    1) --> V(    1) amplitude =  0.1757 alpha
    S(    2) --> V(    1) amplitude = -0.4080 alpha
    S(    3) --> V(    1) amplitude =  0.2656 alpha
    D(  159) --> V(    1) amplitude = -0.2284 beta
    D(  160) --> S(    2) amplitude = -0.1540 beta
    D(  160) --> S(    3) amplitude =  0.1543 beta
    D(  160) --> V(    1) amplitude =  0.4274 beta

 Excited state   5: excitation energy (eV) =    1.7126
 Total energy for state  5:                 -3317.98834372 au
    <S**2>     :  4.3135
    Trans. Mom.: -0.3475 X   0.0611 Y   0.0612 Z
    Strength   :     0.0053795838
    D(  159) --> V(    1) amplitude =  0.1690 alpha
    D(  160) --> V(    1) amplitude = -0.2911 alpha
    S(    1) --> V(    1) amplitude =  0.1944 alpha
    S(    3) --> V(    1) amplitude =  0.8072 alpha
    D(  160) --> S(    3) amplitude = -0.2278 beta
    D(  160) --> V(    1) amplitude = -0.1865 beta

 Excited state   6: excitation energy (eV) =    1.8694
 Total energy for state  6:                 -3317.98258002 au
    <S**2>     :  4.3046
    Trans. Mom.: -0.0458 X  -0.0296 Y   0.0933 Z
    Strength   :     0.0005352680
    S(    1) --> V(    1) amplitude =  0.9033 alpha
    S(    2) --> V(    1) amplitude =  0.2809 alpha

 Excited state   7: excitation energy (eV) =    1.9860
 Total energy for state  7:                 -3317.97829616 au
    <S**2>     :  3.9359
    Trans. Mom.: -0.1170 X  -0.0036 Y   0.0217 Z
    Strength   :     0.0006893502
    D(  160) --> V(    1) amplitude =  0.2035 alpha
    S(    3) --> V(    1) amplitude =  0.2566 alpha
    D(  159) --> S(    3) amplitude = -0.3352 beta
    D(  159) --> V(    1) amplitude =  0.1864 beta
    D(  160) --> S(    3) amplitude =  0.6911 beta
    D(  160) --> V(    1) amplitude = -0.3698 beta

 Excited state   8: excitation energy (eV) =    2.2092
 Total energy for state  8:                 -3317.97009391 au
    <S**2>     :  4.0794
    Trans. Mom.:  0.0320 X  -0.0603 Y   0.1167 Z
    Strength   :     0.0009897444
    D(  159) --> V(    1) amplitude = -0.3145 alpha
    D(  160) --> V(    1) amplitude =  0.7019 alpha
    D(  159) --> S(    3) amplitude =  0.1956 beta
    D(  159) --> V(    1) amplitude =  0.1515 beta
    D(  160) --> S(    2) amplitude =  0.2030 beta
    D(  160) --> S(    3) amplitude = -0.3506 beta
    D(  160) --> V(    1) amplitude = -0.2291 beta

 Excited state   9: excitation energy (eV) =    2.3311
 Total energy for state  9:                 -3317.96561296 au
    <S**2>     :  4.1159
    Trans. Mom.:  0.0622 X  -0.1307 Y   0.1328 Z
    Strength   :     0.0022033740
    D(  147) --> V(    1) amplitude = -0.2151 alpha
    D(  151) --> V(    1) amplitude =  0.1775 alpha
    D(  154) --> V(    1) amplitude = -0.2304 alpha
    D(  157) --> V(    1) amplitude = -0.2906 alpha
    D(  158) --> V(    1) amplitude = -0.1683 alpha
    D(  159) --> V(    1) amplitude =  0.3039 alpha
    D(  160) --> V(    1) amplitude =  0.3703 alpha
    S(    3) --> V(    1) amplitude =  0.1658 alpha
    D(  159) --> S(    1) amplitude =  0.3210 beta
    D(  159) --> V(    1) amplitude = -0.1846 beta
    D(  160) --> S(    1) amplitude =  0.3015 beta
    D(  160) --> V(    1) amplitude =  0.4192 beta

 Excited state  10: excitation energy (eV) =    2.4393
 Total energy for state 10:                 -3317.96163895 au
    <S**2>     :  3.8414
    Trans. Mom.:  0.4422 X   0.0493 Y  -0.0570 Z
    Strength   :     0.0120231999
    D(  159) --> V(    1) amplitude = -0.1736 alpha
    S(    3) --> V(    1) amplitude = -0.1530 alpha
    D(  159) --> S(    1) amplitude =  0.7350 beta
    D(  159) --> S(    2) amplitude = -0.3256 beta
    D(  160) --> S(    1) amplitude =  0.3454 beta
    D(  160) --> V(    1) amplitude = -0.1680 beta

 Excited state  11: excitation energy (eV) =    2.6032
 Total energy for state 11:                 -3317.95561484 au
    <S**2>     :  3.8920
    Trans. Mom.:  0.6527 X   0.1909 Y  -0.1462 Z
    Strength   :     0.0308578266
    D(  160) --> V(    1) amplitude = -0.1641 alpha
    D(  159) --> S(    1) amplitude =  0.3166 beta
    D(  159) --> S(    2) amplitude =  0.7771 beta
    D(  160) --> S(    2) amplitude =  0.4093 beta

 Excited state  12: excitation energy (eV) =    2.8174
 Total energy for state 12:                 -3317.94774055 au
    <S**2>     :  3.8684
    Trans. Mom.: -0.1378 X  -0.0233 Y   0.0902 Z
    Strength   :     0.0019095518
    D(  158) --> S(    1) amplitude =  0.1700 beta
    D(  158) --> S(    2) amplitude =  0.9456 beta

 Excited state  13: excitation energy (eV) =    2.8452
 Total energy for state 13:                 -3317.94672071 au
    <S**2>     :  3.9303
    Trans. Mom.:  0.3836 X  -0.4890 Y   0.4255 Z
    Strength   :     0.0395475090
    D(  158) --> S(    1) amplitude =  0.8879 beta
    D(  158) --> S(    2) amplitude = -0.1724 beta
    D(  159) --> S(    1) amplitude =  0.1837 beta
    D(  159) --> S(    2) amplitude = -0.1998 beta

 Excited state  14: excitation energy (eV) =    2.9553
 Total energy for state 14:                 -3317.94267519 au
    <S**2>     :  4.6342
    Trans. Mom.: -0.0975 X   0.1948 Y  -0.0533 Z
    Strength   :     0.0036408771
    D(  150) --> V(    1) amplitude =  0.1938 alpha
    D(  151) --> V(    1) amplitude =  0.4652 alpha
    D(  152) --> V(    1) amplitude =  0.3022 alpha
    D(  153) --> V(    1) amplitude =  0.2933 alpha
    D(  154) --> V(    1) amplitude = -0.4056 alpha
    D(  159) --> V(    1) amplitude = -0.4612 alpha
    D(  160) --> V(    1) amplitude = -0.2349 alpha

 Excited state  15: excitation energy (eV) =    3.1531
 Total energy for state 15:                 -3317.93540655 au
    <S**2>     :  4.7223
    Trans. Mom.: -0.0608 X   0.1097 Y  -0.0325 Z
    Strength   :     0.0012964504
    D(  147) --> V(    1) amplitude =  0.1704 alpha
    D(  151) --> V(    1) amplitude =  0.2748 alpha
    D(  157) --> V(    1) amplitude =  0.4815 alpha
    D(  158) --> V(    1) amplitude =  0.5600 alpha
    D(  159) --> V(    1) amplitude =  0.4542 alpha
    D(  160) --> V(    1) amplitude =  0.2181 alpha

 Excited state  16: excitation energy (eV) =    3.1922
 Total energy for state 16:                 -3317.93396999 au
    <S**2>     :  4.7557
    Trans. Mom.:  0.0323 X   0.0122 Y  -0.0196 Z
    Strength   :     0.0001231105
    D(  157) --> V(    1) amplitude = -0.5733 alpha
    D(  158) --> V(    1) amplitude =  0.7440 alpha
    D(  159) --> V(    1) amplitude = -0.3039 alpha

 Excited state  17: excitation energy (eV) =    3.2805
 Total energy for state 17:                 -3317.93072268 au
    <S**2>     :  4.6992
    Trans. Mom.: -0.0727 X  -0.2513 Y   0.2225 Z
    Strength   :     0.0094778170
    D(  147) --> V(    1) amplitude =  0.6777 alpha
    D(  150) --> V(    1) amplitude =  0.2187 alpha
    D(  156) --> V(    1) amplitude =  0.1878 alpha
    D(  157) --> V(    1) amplitude = -0.4201 alpha
    D(  155) --> S(    1) amplitude = -0.1608 beta

 Excited state  18: excitation energy (eV) =    3.3948
 Total energy for state 18:                 -3317.92652438 au
    <S**2>     :  4.7398
    Trans. Mom.:  0.0340 X   0.1052 Y  -0.0855 Z
    Strength   :     0.0016249382
    D(  147) --> V(    1) amplitude = -0.2228 alpha
    D(  153) --> V(    1) amplitude =  0.2385 alpha
    D(  154) --> V(    1) amplitude =  0.3132 alpha
    D(  155) --> V(    1) amplitude =  0.2068 alpha
    D(  156) --> V(    1) amplitude =  0.8121 alpha

 Excited state  19: excitation energy (eV) =    3.4198
 Total energy for state 19:                 -3317.92560562 au
    <S**2>     :  4.7558
    Trans. Mom.: -0.0088 X   0.0104 Y  -0.0036 Z
    Strength   :     0.0000165662
    D(  155) --> V(    1) amplitude =  0.9643 alpha
    D(  156) --> V(    1) amplitude = -0.2508 alpha

 Excited state  20: excitation energy (eV) =    3.4425
 Total energy for state 20:                 -3317.92476871 au
    <S**2>     :  4.7528
    Trans. Mom.:  0.0096 X   0.0740 Y  -0.0306 Z
    Strength   :     0.0005482156
    D(  151) --> V(    1) amplitude =  0.1564 alpha
    D(  153) --> V(    1) amplitude =  0.4911 alpha
    D(  154) --> V(    1) amplitude =  0.6919 alpha
    D(  156) --> V(    1) amplitude = -0.4503 alpha

 Excited state  21: excitation energy (eV) =    3.4976
 Total energy for state 21:                 -3317.92274631 au
    <S**2>     :  4.7204
    Trans. Mom.:  0.0151 X  -0.0866 Y   0.0790 Z
    Strength   :     0.0011972523
    D(  151) --> V(    1) amplitude = -0.3767 alpha
    D(  152) --> V(    1) amplitude = -0.3433 alpha
    D(  153) --> V(    1) amplitude =  0.7280 alpha
    D(  154) --> V(    1) amplitude = -0.2945 alpha

 Excited state  22: excitation energy (eV) =    3.5771
 Total energy for state 22:                 -3317.91982352 au
    <S**2>     :  4.0879
    Trans. Mom.: -0.0463 X  -0.1839 Y   0.1439 Z
    Strength   :     0.0049643927
    D(  150) --> V(    1) amplitude =  0.2652 alpha
    D(  151) --> V(    1) amplitude = -0.1504 alpha
    D(  151) --> S(    1) amplitude =  0.2800 beta
    D(  153) --> S(    1) amplitude =  0.1526 beta
    D(  155) --> S(    1) amplitude =  0.4979 beta
    D(  157) --> S(    1) amplitude =  0.5845 beta

 Excited state  23: excitation energy (eV) =    3.6162
 Total energy for state 23:                 -3317.91838826 au
    <S**2>     :  4.1109
    Trans. Mom.:  0.0773 X   0.0562 Y  -0.0341 Z
    Strength   :     0.0009120382
    D(  159) --> S(    3) amplitude =  0.8270 beta
    D(  160) --> S(    3) amplitude =  0.4508 beta

 Excited state  24: excitation energy (eV) =    3.6222
 Total energy for state 24:                 -3317.91816766 au
    <S**2>     :  4.7381
    Trans. Mom.:  0.0054 X  -0.0220 Y  -0.0365 Z
    Strength   :     0.0001640114
    D(  151) --> V(    1) amplitude = -0.5197 alpha
    D(  152) --> V(    1) amplitude =  0.8092 alpha

 Excited state  25: excitation energy (eV) =    3.6659
 Total energy for state 25:                 -3317.91656148 au
    <S**2>     :  4.5054
    Trans. Mom.:  0.1122 X  -0.0099 Y  -0.1864 Z
    Strength   :     0.0042595876
    D(  146) --> V(    1) amplitude = -0.2715 alpha
    D(  150) --> V(    1) amplitude =  0.7203 alpha
    D(  151) --> V(    1) amplitude = -0.1728 alpha
    D(  151) --> S(    2) amplitude =  0.1581 beta
    D(  155) --> S(    2) amplitude =  0.2879 beta
    D(  157) --> S(    1) amplitude = -0.2106 beta
    D(  157) --> S(    2) amplitude =  0.2768 beta

 Excited state  26: excitation energy (eV) =    3.7425
 Total energy for state 26:                 -3317.91374500 au
    <S**2>     :  4.0923
    Trans. Mom.:  0.0680 X  -0.3033 Y   0.1913 Z
    Strength   :     0.0122130924
    D(  150) --> V(    1) amplitude = -0.3517 alpha
    D(  148) --> S(    1) amplitude = -0.1577 beta
    D(  149) --> S(    1) amplitude =  0.2384 beta
    D(  155) --> S(    2) amplitude =  0.4377 beta
    D(  157) --> S(    1) amplitude =  0.3191 beta
    D(  157) --> S(    2) amplitude =  0.5172 beta

 Excited state  27: excitation energy (eV) =    3.7741
 Total energy for state 27:                 -3317.91258294 au
    <S**2>     :  4.3100
    Trans. Mom.:  0.0653 X   0.0547 Y  -0.0216 Z
    Strength   :     0.0007139246
    S(    1) --> V(    7) amplitude =  0.1518 alpha
    D(  148) --> S(    1) amplitude =  0.1714 beta
    D(  149) --> S(    1) amplitude = -0.2751 beta
    D(  150) --> S(    1) amplitude =  0.1697 beta
    D(  151) --> S(    1) amplitude = -0.2882 beta
    D(  156) --> S(    1) amplitude =  0.4839 beta
    D(  157) --> S(    1) amplitude =  0.4037 beta
    D(  158) --> S(    3) amplitude = -0.2522 beta

 Excited state  28: excitation energy (eV) =    3.7785
 Total energy for state 28:                 -3317.91242272 au
    <S**2>     :  4.6725
    Trans. Mom.: -0.0849 X   0.1066 Y  -0.0818 Z
    Strength   :     0.0023389929
    D(  150) --> V(    1) amplitude =  0.1902 alpha
    S(    1) --> V(    7) amplitude = -0.2042 alpha
    D(  151) --> S(    1) amplitude = -0.2196 beta
    D(  155) --> S(    1) amplitude = -0.2577 beta
    D(  157) --> S(    1) amplitude =  0.4509 beta
    D(  158) --> S(    3) amplitude =  0.2819 beta
    D(  158) --> V(    7) amplitude = -0.1541 beta
    D(  158) --> V(    8) amplitude =  0.1537 beta

 Excited state  29: excitation energy (eV) =    3.7893
 Total energy for state 29:                 -3317.91202589 au
    <S**2>     :  4.2085
    Trans. Mom.: -0.0402 X  -0.0924 Y   0.0264 Z
    Strength   :     0.0010064607
    D(  150) --> V(    1) amplitude = -0.1511 alpha
    D(  155) --> S(    1) amplitude =  0.2102 beta
    D(  156) --> S(    1) amplitude =  0.7343 beta
    D(  157) --> S(    1) amplitude = -0.2435 beta
    D(  158) --> S(    3) amplitude =  0.1899 beta

 Excited state  30: excitation energy (eV) =    3.8197
 Total energy for state 30:                 -3317.91090778 au
    <S**2>     :  4.0892
    Trans. Mom.: -0.0379 X  -0.0294 Y   0.1090 Z
    Strength   :     0.0013269983
    D(  145) --> V(    1) amplitude =  0.2181 alpha
    D(  146) --> V(    1) amplitude =  0.2981 alpha
    D(  148) --> S(    1) amplitude = -0.2974 beta
    D(  149) --> S(    1) amplitude =  0.4190 beta
    D(  150) --> S(    1) amplitude = -0.2218 beta
    D(  151) --> S(    1) amplitude =  0.3136 beta
    D(  154) --> S(    1) amplitude = -0.1575 beta
    D(  156) --> S(    1) amplitude =  0.4136 beta

 Excited state  31: excitation energy (eV) =    3.8385
 Total energy for state 31:                 -3317.91021593 au
    <S**2>     :  4.3618
    Trans. Mom.: -0.0896 X  -0.0753 Y   0.1741 Z
    Strength   :     0.0041364271
    D(  145) --> V(    1) amplitude =  0.2475 alpha
    D(  146) --> V(    1) amplitude =  0.4906 alpha
    D(  149) --> V(    1) amplitude = -0.1865 alpha
    D(  151) --> V(    1) amplitude = -0.1600 alpha
    D(  148) --> S(    1) amplitude =  0.1562 beta
    D(  149) --> S(    1) amplitude = -0.2677 beta
    D(  155) --> S(    1) amplitude =  0.4265 beta
    D(  156) --> S(    1) amplitude = -0.1631 beta
    D(  157) --> S(    1) amplitude = -0.1838 beta
    D(  157) --> S(    2) amplitude =  0.2809 beta

 Excited state  32: excitation energy (eV) =    3.8418
 Total energy for state 32:                 -3317.91009450 au
    <S**2>     :  5.4452
    Trans. Mom.: -0.0341 X   0.0194 Y   0.0018 Z
    Strength   :     0.0001452138
    S(    3) --> V(    9) amplitude =  0.2973 alpha
    S(    3) --> V(   10) amplitude = -0.2854 alpha
    S(    3) --> V(   12) amplitude =  0.2637 alpha
    S(    3) --> V(   13) amplitude = -0.2500 alpha
    S(    3) --> V(   14) amplitude =  0.1540 alpha
    D(  159) --> S(    3) amplitude = -0.1770 beta
    D(  159) --> V(    1) amplitude = -0.2606 beta
    D(  159) --> V(    9) amplitude = -0.1508 beta
    D(  159) --> V(   10) amplitude =  0.1708 beta
    D(  159) --> V(   12) amplitude =  0.1542 beta
    D(  159) --> V(   13) amplitude = -0.1615 beta
    D(  160) --> V(    1) amplitude = -0.1790 beta
    D(  160) --> V(    9) amplitude = -0.2363 beta
    D(  160) --> V(   10) amplitude =  0.2066 beta
    D(  160) --> V(   12) amplitude =  0.1895 beta
    D(  160) --> V(   13) amplitude = -0.2139 beta

 Excited state  33: excitation energy (eV) =    3.9190
 Total energy for state 33:                 -3317.90726063 au
    <S**2>     :  4.3382
    Trans. Mom.: -0.1018 X   0.0865 Y  -0.0637 Z
    Strength   :     0.0021032333
    D(  145) --> V(    1) amplitude =  0.2075 alpha
    D(  146) --> V(    1) amplitude = -0.3193 alpha
    D(  148) --> V(    1) amplitude = -0.3289 alpha
    D(  149) --> V(    1) amplitude =  0.3122 alpha
    D(  149) --> S(    2) amplitude =  0.2051 beta
    D(  155) --> S(    2) amplitude = -0.3140 beta
    D(  156) --> S(    2) amplitude = -0.2167 beta
    D(  157) --> S(    2) amplitude =  0.4284 beta
    D(  158) --> S(    3) amplitude =  0.1576 beta
    D(  159) --> V(    1) amplitude = -0.2520 beta

 Excited state  34: excitation energy (eV) =    3.9303
 Total energy for state 34:                 -3317.90684355 au
    <S**2>     :  3.9090
    Trans. Mom.:  0.0199 X   0.0983 Y  -0.0475 Z
    Strength   :     0.0011855160
    D(  151) --> S(    2) amplitude = -0.1738 beta
    D(  155) --> S(    2) amplitude = -0.3109 beta
    D(  156) --> S(    2) amplitude =  0.7674 beta
    D(  157) --> S(    2) amplitude =  0.3931 beta
    D(  159) --> V(    1) amplitude =  0.1982 beta

 Excited state  35: excitation energy (eV) =    3.9344
 Total energy for state 35:                 -3317.90669495 au
    <S**2>     :  4.1867
    Trans. Mom.: -0.0895 X   0.0401 Y   0.0380 Z
    Strength   :     0.0010655517
    D(  148) --> V(    1) amplitude = -0.3229 alpha
    D(  151) --> S(    2) amplitude =  0.1608 beta
    D(  155) --> S(    2) amplitude =  0.2422 beta
    D(  156) --> S(    2) amplitude =  0.5684 beta
    D(  157) --> S(    2) amplitude = -0.3200 beta
    D(  158) --> S(    3) amplitude =  0.2267 beta
    D(  159) --> V(    1) amplitude = -0.4013 beta
    D(  160) --> V(    1) amplitude = -0.2210 beta

 Excited state  36: excitation energy (eV) =    3.9434
 Total energy for state 36:                 -3317.90636143 au
    <S**2>     :  4.5474
    Trans. Mom.: -0.0864 X  -0.0164 Y   0.0617 Z
    Strength   :     0.0011154200
    D(  148) --> V(    1) amplitude =  0.6280 alpha
    D(  149) --> V(    1) amplitude = -0.3688 alpha
    D(  158) --> S(    3) amplitude =  0.3443 beta
    D(  159) --> V(    1) amplitude = -0.4151 beta
    D(  160) --> V(    1) amplitude = -0.2164 beta

 Excited state  37: excitation energy (eV) =    3.9612
 Total energy for state 37:                 -3317.90570811 au
    <S**2>     :  4.7021
    Trans. Mom.: -0.0213 X  -0.1000 Y   0.0618 Z
    Strength   :     0.0013853346
    D(  146) --> V(    1) amplitude =  0.2063 alpha
    D(  148) --> V(    1) amplitude =  0.4694 alpha
    D(  149) --> V(    1) amplitude =  0.7707 alpha
    D(  158) --> S(    3) amplitude = -0.1555 beta

 Excited state  38: excitation energy (eV) =    3.9851
 Total energy for state 38:                 -3317.90483111 au
    <S**2>     :  4.3426
    Trans. Mom.: -0.1420 X   0.1111 Y   0.1083 Z
    Strength   :     0.0043195172
    D(  146) --> V(    1) amplitude =  0.4439 alpha
    D(  148) --> V(    1) amplitude = -0.2159 alpha
    D(  149) --> V(    1) amplitude =  0.2851 alpha
    D(  149) --> S(    2) amplitude = -0.1775 beta
    D(  154) --> S(    1) amplitude = -0.1635 beta
    D(  155) --> S(    1) amplitude = -0.1798 beta
    D(  158) --> S(    3) amplitude =  0.5183 beta

 Excited state  39: excitation energy (eV) =    3.9940
 Total energy for state 39:                 -3317.90450168 au
    <S**2>     :  4.0168
    Trans. Mom.: -0.0217 X  -0.0169 Y  -0.0280 Z
    Strength   :     0.0001504464
    D(  152) --> S(    1) amplitude =  0.2890 beta
    D(  153) --> S(    1) amplitude =  0.4885 beta
    D(  154) --> S(    1) amplitude = -0.4175 beta
    D(  155) --> S(    1) amplitude = -0.4241 beta
    D(  158) --> S(    3) amplitude = -0.3085 beta
    D(  159) --> V(    1) amplitude = -0.2647 beta
    D(  160) --> V(    1) amplitude = -0.1525 beta

 Excited state  40: excitation energy (eV) =    4.0155
 Total energy for state 40:                 -3317.90371445 au
    <S**2>     :  4.3967
    Trans. Mom.:  0.0127 X   0.0330 Y  -0.0106 Z
    Strength   :     0.0001339513
    D(  144) --> V(    1) amplitude =  0.2341 alpha
    D(  145) --> V(    1) amplitude =  0.3409 alpha
    D(  146) --> V(    1) amplitude = -0.2523 alpha
    D(  148) --> V(    1) amplitude =  0.2568 alpha
    D(  153) --> S(    1) amplitude =  0.4006 beta
    D(  155) --> S(    2) amplitude =  0.1518 beta
    D(  158) --> S(    3) amplitude =  0.3113 beta
    D(  159) --> V(    1) amplitude =  0.3570 beta
    D(  160) --> V(    1) amplitude =  0.1713 beta

 Excited state  41: excitation energy (eV) =    4.0185
 Total energy for state 41:                 -3317.90360123 au
    <S**2>     :  3.9068
    Trans. Mom.: -0.0027 X  -0.0021 Y   0.0302 Z
    Strength   :     0.0000909219
    D(  153) --> S(    1) amplitude =  0.5812 beta
    D(  154) --> S(    1) amplitude =  0.7668 beta

 Excited state  42: excitation energy (eV) =    4.0437
 Total energy for state 42:                 -3317.90267521 au
    <S**2>     :  3.9090
    Trans. Mom.: -0.1007 X   0.0750 Y  -0.0192 Z
    Strength   :     0.0015988354
    D(  151) --> S(    1) amplitude =  0.2733 beta
    D(  152) --> S(    1) amplitude =  0.7549 beta
    D(  153) --> S(    1) amplitude = -0.3934 beta
    D(  154) --> S(    1) amplitude =  0.3228 beta

 Excited state  43: excitation energy (eV) =    4.0773
 Total energy for state 43:                 -3317.90144283 au
    <S**2>     :  4.5333
    Trans. Mom.:  0.1191 X  -0.4241 Y   0.1169 Z
    Strength   :     0.0207498025
    D(  145) --> V(    1) amplitude = -0.2824 alpha
    D(  149) --> S(    2) amplitude =  0.2124 beta
    D(  151) --> S(    2) amplitude =  0.2258 beta
    D(  152) --> S(    1) amplitude =  0.2686 beta
    D(  154) --> S(    2) amplitude = -0.1914 beta
    D(  155) --> S(    2) amplitude = -0.1661 beta
    D(  160) --> V(    2) amplitude =  0.6740 beta
    D(  160) --> V(    7) amplitude =  0.1560 beta

 Excited state  44: excitation energy (eV) =    4.0843
 Total energy for state 44:                 -3317.90118531 au
    <S**2>     :  4.4506
    Trans. Mom.: -0.0947 X   0.3141 Y  -0.0439 Z
    Strength   :     0.0109594339
    D(  145) --> V(    1) amplitude =  0.2548 alpha
    D(  149) --> S(    2) amplitude = -0.2499 beta
    D(  151) --> S(    2) amplitude = -0.2583 beta
    D(  152) --> S(    1) amplitude = -0.2579 beta
    D(  154) --> S(    2) amplitude =  0.2268 beta
    D(  155) --> S(    2) amplitude =  0.2074 beta
    D(  160) --> V(    2) amplitude =  0.6656 beta

 Excited state  45: excitation energy (eV) =    4.1084
 Total energy for state 45:                 -3317.90030009 au
    <S**2>     :  3.9138
    Trans. Mom.:  0.0550 X  -0.1303 Y   0.0507 Z
    Strength   :     0.0022704904
    D(  148) --> S(    1) amplitude =  0.1788 beta
    D(  149) --> S(    1) amplitude = -0.2805 beta
    D(  150) --> S(    1) amplitude =  0.2439 beta
    D(  151) --> S(    1) amplitude =  0.6780 beta
    D(  152) --> S(    1) amplitude = -0.3716 beta
    D(  153) --> S(    1) amplitude = -0.1694 beta
    D(  154) --> S(    2) amplitude = -0.1608 beta
    D(  155) --> S(    1) amplitude = -0.2122 beta

 Excited state  46: excitation energy (eV) =    4.1417
 Total energy for state 46:                 -3317.89907542 au
    <S**2>     :  3.9348
    Trans. Mom.: -0.0973 X   0.1991 Y  -0.0444 Z
    Strength   :     0.0051830915
    D(  145) --> V(    1) amplitude =  0.1635 alpha
    D(  149) --> S(    2) amplitude = -0.2291 beta
    D(  150) --> S(    2) amplitude =  0.1967 beta
    D(  152) --> S(    2) amplitude =  0.2853 beta
    D(  153) --> S(    2) amplitude =  0.6485 beta
    D(  154) --> S(    2) amplitude = -0.3354 beta
    D(  155) --> S(    2) amplitude = -0.3992 beta

 Excited state  47: excitation energy (eV) =    4.1501
 Total energy for state 47:                 -3317.89876571 au
    <S**2>     :  4.7845
    Trans. Mom.:  0.0216 X   0.0042 Y   0.0564 Z
    Strength   :     0.0003732216
    D(  160) --> V(    3) amplitude =  0.9121 beta
    D(  160) --> V(    8) amplitude = -0.2275 beta

 Excited state  48: excitation energy (eV) =    4.1637
 Total energy for state 48:                 -3317.89826850 au
    <S**2>     :  3.8765
    Trans. Mom.:  0.0699 X  -0.0896 Y   0.0096 Z
    Strength   :     0.0013271073
    D(  153) --> S(    2) amplitude =  0.5699 beta
    D(  154) --> S(    2) amplitude =  0.7690 beta

 Excited state  49: excitation energy (eV) =    4.1768
 Total energy for state 49:                 -3317.89778577 au
    <S**2>     :  4.7267
    Trans. Mom.: -0.0292 X  -0.0752 Y   0.0527 Z
    Strength   :     0.0009495484
    D(  158) --> V(    1) amplitude = -0.2318 beta
    D(  160) --> V(    2) amplitude =  0.1975 beta
    D(  160) --> V(    3) amplitude =  0.2409 beta
    D(  160) --> V(    4) amplitude =  0.4706 beta
    D(  160) --> V(    5) amplitude = -0.4231 beta
    D(  160) --> V(    7) amplitude = -0.4488 beta
    D(  160) --> V(    8) amplitude =  0.2315 beta

 Excited state  50: excitation energy (eV) =    4.1878
 Total energy for state 50:                 -3317.89738236 au
    <S**2>     :  3.8614
    Trans. Mom.: -0.0117 X   0.0439 Y  -0.0292 Z
    Strength   :     0.0002994746
    D(  151) --> S(    2) amplitude =  0.2673 beta
    D(  152) --> S(    2) amplitude =  0.8000 beta
    D(  153) --> S(    2) amplitude = -0.3647 beta
    D(  154) --> S(    2) amplitude =  0.3110 beta

 Excited state  51: excitation energy (eV) =    4.1950
 Total energy for state 51:                 -3317.89711515 au
    <S**2>     :  4.7566
    Trans. Mom.:  0.1482 X   0.0284 Y   0.0072 Z
    Strength   :     0.0023445479
    D(  144) --> V(    1) amplitude =  0.6383 alpha
    D(  145) --> V(    1) amplitude = -0.4046 alpha
    D(  147) --> V(    1) amplitude = -0.1523 alpha
    D(  158) --> V(    1) amplitude =  0.5286 beta

 Excited state  52: excitation energy (eV) =    4.2112
 Total energy for state 52:                 -3317.89652284 au
    <S**2>     :  3.9435
    Trans. Mom.:  0.0280 X  -0.0921 Y   0.0837 Z
    Strength   :     0.0016771859
    D(  145) --> S(    1) amplitude = -0.3564 beta
    D(  148) --> S(    1) amplitude =  0.2589 beta
    D(  149) --> S(    1) amplitude =  0.5416 beta
    D(  150) --> S(    1) amplitude =  0.6047 beta

 Excited state  53: excitation energy (eV) =    4.2293
 Total energy for state 53:                 -3317.89585482 au
    <S**2>     :  4.0962
    Trans. Mom.:  0.1059 X   0.1061 Y  -0.0272 Z
    Strength   :     0.0024037759
    D(  144) --> V(    1) amplitude =  0.3393 alpha
    D(  145) --> S(    1) amplitude =  0.4005 beta
    D(  147) --> S(    1) amplitude = -0.2067 beta
    D(  148) --> S(    1) amplitude = -0.2635 beta
    D(  149) --> S(    1) amplitude =  0.1689 beta
    D(  150) --> S(    1) amplitude =  0.5247 beta
    D(  151) --> S(    2) amplitude = -0.2296 beta
    D(  152) --> S(    2) amplitude =  0.2119 beta
    D(  158) --> V(    1) amplitude = -0.3185 beta

 Excited state  54: excitation energy (eV) =    4.2494
 Total energy for state 54:                 -3317.89511596 au
    <S**2>     :  4.0810
    Trans. Mom.: -0.1079 X   0.1009 Y  -0.0957 Z
    Strength   :     0.0032251776
    D(  144) --> V(    1) amplitude = -0.2026 alpha
    D(  145) --> V(    1) amplitude =  0.1739 alpha
    D(  145) --> S(    1) amplitude =  0.3403 beta
    D(  147) --> S(    1) amplitude = -0.1626 beta
    D(  148) --> S(    1) amplitude = -0.3214 beta
    D(  149) --> S(    2) amplitude = -0.1623 beta
    D(  150) --> S(    1) amplitude =  0.2449 beta
    D(  150) --> S(    2) amplitude =  0.1808 beta
    D(  151) --> S(    2) amplitude =  0.4254 beta
    D(  152) --> S(    2) amplitude = -0.2816 beta
    D(  155) --> S(    2) amplitude = -0.1528 beta
    D(  158) --> V(    1) amplitude =  0.3499 beta
    D(  160) --> V(    4) amplitude =  0.2040 beta

 Excited state  55: excitation energy (eV) =    4.2584
 Total energy for state 55:                 -3317.89478830 au
    <S**2>     :  4.2377
    Trans. Mom.:  0.1440 X   0.1137 Y   0.0026 Z
    Strength   :     0.0035129428
    D(  144) --> V(    1) amplitude =  0.3455 alpha
    D(  149) --> S(    2) amplitude = -0.2743 beta
    D(  150) --> S(    2) amplitude =  0.2341 beta
    D(  151) --> S(    2) amplitude =  0.4686 beta
    D(  152) --> S(    2) amplitude = -0.2624 beta
    D(  155) --> S(    2) amplitude = -0.1680 beta
    D(  158) --> V(    1) amplitude = -0.4228 beta
    D(  160) --> V(    4) amplitude = -0.3418 beta

 Excited state  56: excitation energy (eV) =    4.2637
 Total energy for state 56:                 -3317.89459047 au
    <S**2>     :  4.7189
    Trans. Mom.:  0.0961 X  -0.0415 Y   0.0218 Z
    Strength   :     0.0011943159
    D(  145) --> S(    1) amplitude = -0.1572 beta
    D(  148) --> S(    1) amplitude =  0.1681 beta
    D(  158) --> V(    1) amplitude = -0.1892 beta
    D(  160) --> V(    4) amplitude =  0.6053 beta
    D(  160) --> V(    5) amplitude =  0.4519 beta
    D(  160) --> V(    6) amplitude = -0.4440 beta
    D(  160) --> V(    8) amplitude = -0.1923 beta

 Excited state  57: excitation energy (eV) =    4.3086
 Total energy for state 57:                 -3317.89294329 au
    <S**2>     :  4.7903
    Trans. Mom.: -0.0815 X   0.0704 Y  -0.1022 Z
    Strength   :     0.0023255233
    D(  160) --> V(    4) amplitude =  0.2966 beta
    D(  160) --> V(    5) amplitude =  0.4343 beta
    D(  160) --> V(    6) amplitude =  0.7037 beta
    D(  160) --> V(    7) amplitude =  0.2371 beta
    D(  160) --> V(    8) amplitude =  0.2097 beta
    D(  160) --> V(    9) amplitude =  0.1783 beta

 Excited state  58: excitation energy (eV) =    4.3113
 Total energy for state 58:                 -3317.89284118 au
    <S**2>     :  4.7001
    Trans. Mom.:  0.0074 X  -0.1388 Y   0.1263 Z
    Strength   :     0.0037268936
    S(    3) --> V(    2) amplitude =  0.9458 alpha
    S(    3) --> V(    5) amplitude = -0.1890 alpha

 Excited state  59: excitation energy (eV) =    4.3507
 Total energy for state 59:                 -3317.89139450 au
    <S**2>     :  4.0443
    Trans. Mom.:  0.0238 X  -0.0079 Y  -0.0099 Z
    Strength   :     0.0000775532
    D(  145) --> S(    1) amplitude = -0.3143 beta
    D(  145) --> S(    2) amplitude = -0.1613 beta
    D(  148) --> S(    1) amplitude = -0.3932 beta
    D(  149) --> S(    1) amplitude = -0.1805 beta
    D(  149) --> S(    2) amplitude =  0.4293 beta
    D(  150) --> S(    2) amplitude =  0.4577 beta
    D(  160) --> V(    5) amplitude =  0.2604 beta
    D(  160) --> V(    7) amplitude = -0.2880 beta

 Excited state  60: excitation energy (eV) =    4.3542
 Total energy for state 60:                 -3317.89126498 au
    <S**2>     :  4.0924
    Trans. Mom.: -0.0123 X   0.0407 Y  -0.0044 Z
    Strength   :     0.0001953206
    D(  145) --> S(    1) amplitude =  0.2183 beta
    D(  148) --> S(    1) amplitude =  0.3053 beta
    D(  149) --> S(    2) amplitude =  0.3884 beta
    D(  150) --> S(    2) amplitude =  0.5928 beta
    D(  160) --> V(    5) amplitude = -0.2718 beta
    D(  160) --> V(    7) amplitude =  0.3454 beta

 Excited state  61: excitation energy (eV) =    4.3611
 Total energy for state 61:                 -3317.89101353 au
    <S**2>     :  4.3455
    Trans. Mom.:  0.0574 X  -0.1134 Y   0.1118 Z
    Strength   :     0.0030623192
    S(    2) --> V(    2) amplitude =  0.1652 alpha
    D(  145) --> S(    1) amplitude = -0.3889 beta
    D(  148) --> S(    1) amplitude = -0.4123 beta
    D(  149) --> S(    1) amplitude = -0.1771 beta
    D(  160) --> V(    4) amplitude =  0.1910 beta
    D(  160) --> V(    5) amplitude = -0.3969 beta
    D(  160) --> V(    7) amplitude =  0.4741 beta

 Excited state  62: excitation energy (eV) =    4.3632
 Total energy for state 62:                 -3317.89093684 au
    <S**2>     :  4.1195
    Trans. Mom.: -0.0186 X   0.0286 Y   0.0626 Z
    Strength   :     0.0005427984
    S(    2) --> V(    2) amplitude =  0.8019 alpha
    S(    2) --> V(    4) amplitude = -0.2528 alpha
    S(    2) --> V(    7) amplitude =  0.1636 alpha
    D(  160) --> V(    5) amplitude =  0.1502 beta
    D(  160) --> V(    7) amplitude = -0.2112 beta

 Excited state  63: excitation energy (eV) =    4.3879
 Total energy for state 63:                 -3317.89002817 au
    <S**2>     :  3.9351
    Trans. Mom.: -0.0949 X  -0.1590 Y   0.1533 Z
    Strength   :     0.0062125851
    S(    2) --> V(    2) amplitude =  0.1587 alpha
    D(  144) --> S(    1) amplitude = -0.1715 beta
    D(  145) --> S(    2) amplitude =  0.6083 beta
    D(  147) --> S(    2) amplitude = -0.2822 beta
    D(  148) --> S(    2) amplitude = -0.4551 beta
    D(  150) --> S(    2) amplitude =  0.3411 beta
    D(  160) --> V(    8) amplitude =  0.1562 beta

 Excited state  64: excitation energy (eV) =    4.4036
 Total energy for state 64:                 -3317.88945034 au
    <S**2>     :  4.7574
    Trans. Mom.:  0.0219 X   0.0118 Y  -0.0903 Z
    Strength   :     0.0009463212
    D(  160) --> V(    3) amplitude =  0.1526 beta
    D(  160) --> V(    6) amplitude = -0.4040 beta
    D(  160) --> V(    7) amplitude =  0.3101 beta
    D(  160) --> V(    8) amplitude =  0.7693 beta

 Excited state  65: excitation energy (eV) =    4.4107
 Total energy for state 65:                 -3317.88918878 au
    <S**2>     :  4.3540
    Trans. Mom.:  0.0388 X   0.0661 Y   0.0077 Z
    Strength   :     0.0006413996
    S(    2) --> V(    2) amplitude =  0.4196 alpha
    S(    2) --> V(    3) amplitude = -0.2478 alpha
    S(    2) --> V(    4) amplitude =  0.2379 alpha
    S(    2) --> V(    5) amplitude = -0.2808 alpha
    S(    2) --> V(    7) amplitude = -0.2326 alpha
    S(    3) --> V(    3) amplitude =  0.5301 alpha
    S(    3) --> V(    5) amplitude =  0.2744 alpha
    S(    3) --> V(    6) amplitude = -0.1771 alpha
    D(  144) --> S(    1) amplitude = -0.1875 beta

 Excited state  66: excitation energy (eV) =    4.4243
 Total energy for state 66:                 -3317.88868858 au
    <S**2>     :  4.4602
    Trans. Mom.: -0.0753 X   0.0899 Y  -0.0004 Z
    Strength   :     0.0014902813
    S(    2) --> V(    2) amplitude = -0.1656 alpha
    S(    2) --> V(    3) amplitude =  0.2723 alpha
    S(    2) --> V(    5) amplitude =  0.1649 alpha
    S(    3) --> V(    3) amplitude =  0.7524 alpha
    S(    3) --> V(    4) amplitude =  0.2527 alpha
    D(  144) --> S(    1) amplitude =  0.2558 beta

 Excited state  67: excitation energy (eV) =    4.4368
 Total energy for state 67:                 -3317.88822942 au
    <S**2>     :  4.2813
    Trans. Mom.:  0.1330 X   0.0216 Y   0.0395 Z
    Strength   :     0.0021421585
    S(    2) --> V(    3) amplitude =  0.1754 alpha
    S(    3) --> V(    4) amplitude =  0.5440 alpha
    S(    3) --> V(    5) amplitude = -0.2477 alpha
    S(    3) --> V(    7) amplitude = -0.1861 alpha
    D(  142) --> S(    1) amplitude =  0.3029 beta
    D(  144) --> S(    1) amplitude = -0.5612 beta

 Excited state  68: excitation energy (eV) =    4.4464
 Total energy for state 68:                 -3317.88787767 au
    <S**2>     :  4.3312
    Trans. Mom.: -0.1311 X  -0.0678 Y   0.0809 Z
    Strength   :     0.0030861791
    S(    2) --> V(    3) amplitude = -0.2940 alpha
    S(    2) --> V(    4) amplitude =  0.2371 alpha
    S(    2) --> V(    5) amplitude = -0.2087 alpha
    S(    2) --> V(    7) amplitude = -0.1898 alpha
    S(    3) --> V(    4) amplitude =  0.4895 alpha
    S(    3) --> V(    5) amplitude = -0.2937 alpha
    S(    3) --> V(    7) amplitude = -0.1764 alpha
    D(  142) --> S(    1) amplitude = -0.2027 beta
    D(  144) --> S(    1) amplitude =  0.4178 beta

 Excited state  69: excitation energy (eV) =    4.4578
 Total energy for state 69:                 -3317.88745785 au
    <S**2>     :  4.6791
    Trans. Mom.: -0.0598 X  -0.1113 Y  -0.0071 Z
    Strength   :     0.0017499727
    S(    2) --> V(    4) amplitude = -0.1747 alpha
    D(  159) --> V(    2) amplitude =  0.8968 beta
    D(  159) --> V(    5) amplitude = -0.1641 beta

 Excited state  70: excitation energy (eV) =    4.4602
 Total energy for state 70:                 -3317.88736895 au
    <S**2>     :  4.1461
    Trans. Mom.:  0.0174 X  -0.0222 Y  -0.0230 Z
    Strength   :     0.0001449918
    S(    2) --> V(    3) amplitude =  0.7231 alpha
    S(    2) --> V(    4) amplitude =  0.4769 alpha
    S(    2) --> V(    5) amplitude = -0.1720 alpha
    S(    2) --> V(    7) amplitude = -0.1996 alpha
    D(  159) --> V(    2) amplitude =  0.2264 beta

 Excited state  71: excitation energy (eV) =    4.4939
 Total energy for state 71:                 -3317.88613266 au
    <S**2>     :  3.8818
    Trans. Mom.: -0.0127 X   0.0548 Y   0.0135 Z
    Strength   :     0.0003681698
    D(  142) --> S(    2) amplitude =  0.1800 beta
    D(  145) --> S(    2) amplitude =  0.5183 beta
    D(  147) --> S(    2) amplitude = -0.1799 beta
    D(  148) --> S(    2) amplitude =  0.6672 beta
    D(  149) --> S(    2) amplitude =  0.2765 beta
    D(  150) --> S(    2) amplitude = -0.1969 beta

 Excited state  72: excitation energy (eV) =    4.5226
 Total energy for state 72:                 -3317.88507602 au
    <S**2>     :  4.6634
    Trans. Mom.: -0.0462 X   0.0536 Y   0.0103 Z
    Strength   :     0.0005671563
    S(    3) --> V(    3) amplitude = -0.2806 alpha
    S(    3) --> V(    4) amplitude =  0.5136 alpha
    S(    3) --> V(    5) amplitude =  0.7442 alpha
    S(    3) --> V(    6) amplitude = -0.1855 alpha

 Excited state  73: excitation energy (eV) =    4.5340
 Total energy for state 73:                 -3317.88465975 au
    <S**2>     :  4.4499
    Trans. Mom.:  0.1374 X  -0.0669 Y   0.0252 Z
    Strength   :     0.0026662164
    D(  141) --> V(    1) amplitude =  0.1671 alpha
    D(  143) --> V(    1) amplitude =  0.4583 alpha
    S(    1) --> V(    2) amplitude =  0.1501 alpha
    D(  142) --> S(    1) amplitude = -0.2184 beta
    D(  143) --> S(    1) amplitude = -0.3827 beta
    D(  146) --> S(    1) amplitude = -0.2333 beta
    D(  147) --> S(    1) amplitude =  0.4032 beta
    D(  159) --> V(    3) amplitude = -0.2062 beta
    D(  160) --> V(    9) amplitude = -0.2394 beta

 Excited state  74: excitation energy (eV) =    4.5386
 Total energy for state 74:                 -3317.88448834 au
    <S**2>     :  4.3386
    Trans. Mom.:  0.0006 X   0.0364 Y   0.0738 Z
    Strength   :     0.0007524035
    S(    1) --> V(    2) amplitude =  0.6878 alpha
    S(    2) --> V(    3) amplitude =  0.2330 alpha
    S(    2) --> V(    4) amplitude = -0.3838 alpha
    S(    2) --> V(    5) amplitude = -0.2009 alpha
    S(    2) --> V(    6) amplitude =  0.2946 alpha

 Excited state  75: excitation energy (eV) =    4.5430
 Total energy for state 75:                 -3317.88432704 au
    <S**2>     :  4.4208
    Trans. Mom.: -0.0761 X   0.0985 Y  -0.0411 Z
    Strength   :     0.0019122410
    D(  144) --> S(    1) amplitude = -0.1746 beta
    D(  146) --> S(    1) amplitude = -0.3876 beta
    D(  147) --> S(    1) amplitude =  0.3373 beta
    D(  159) --> V(    3) amplitude =  0.4454 beta
    D(  160) --> V(    9) amplitude =  0.4741 beta

 Excited state  76: excitation energy (eV) =    4.5524
 Total energy for state 76:                 -3317.88398117 au
    <S**2>     :  4.2167
    Trans. Mom.: -0.0284 X  -0.0171 Y   0.0123 Z
    Strength   :     0.0001391370
    D(  143) --> V(    1) amplitude =  0.2765 alpha
    D(  143) --> S(    1) amplitude = -0.2414 beta
    D(  146) --> S(    1) amplitude =  0.7403 beta
    D(  159) --> V(    3) amplitude =  0.4520 beta

 Excited state  77: excitation energy (eV) =    4.5587
 Total energy for state 77:                 -3317.88375209 au
    <S**2>     :  4.4286
    Trans. Mom.:  0.0264 X   0.0544 Y   0.0161 Z
    Strength   :     0.0004374874
    D(  143) --> V(    1) amplitude =  0.2113 alpha
    D(  145) --> S(    1) amplitude = -0.2147 beta
    D(  146) --> S(    1) amplitude = -0.3592 beta
    D(  147) --> S(    1) amplitude = -0.4371 beta
    D(  159) --> V(    3) amplitude =  0.6080 beta
    D(  160) --> V(    9) amplitude = -0.2915 beta

 Excited state  78: excitation energy (eV) =    4.5635
 Total energy for state 78:                 -3317.88357591 au
    <S**2>     :  4.2967
    Trans. Mom.: -0.0593 X   0.0390 Y   0.0219 Z
    Strength   :     0.0006176076
    D(  143) --> V(    1) amplitude = -0.2657 alpha
    S(    1) --> V(    2) amplitude = -0.2166 alpha
    S(    2) --> V(    4) amplitude = -0.1698 alpha
    S(    2) --> V(    5) amplitude = -0.1810 alpha
    S(    2) --> V(    6) amplitude =  0.3000 alpha
    D(  143) --> S(    1) amplitude =  0.2318 beta
    D(  145) --> S(    1) amplitude =  0.2040 beta
    D(  147) --> S(    1) amplitude =  0.5234 beta
    D(  159) --> V(    3) amplitude =  0.2310 beta
    D(  160) --> V(    9) amplitude = -0.3728 beta

 Excited state  79: excitation energy (eV) =    4.5659
 Total energy for state 79:                 -3317.88348765 au
    <S**2>     :  4.2951
    Trans. Mom.: -0.0346 X  -0.0403 Y  -0.1099 Z
    Strength   :     0.0016663117
    S(    1) --> V(    2) amplitude = -0.4591 alpha
    S(    2) --> V(    3) amplitude =  0.1887 alpha
    S(    2) --> V(    4) amplitude = -0.1883 alpha
    S(    2) --> V(    5) amplitude = -0.2907 alpha
    S(    2) --> V(    6) amplitude =  0.4727 alpha
    S(    3) --> V(    7) amplitude =  0.1617 alpha
    D(  143) --> S(    1) amplitude = -0.1514 beta
    D(  147) --> S(    1) amplitude = -0.2262 beta
    D(  159) --> V(    3) amplitude = -0.2152 beta
    D(  160) --> V(    9) amplitude =  0.2859 beta

 Excited state  80: excitation energy (eV) =    4.5920
 Total energy for state 80:                 -3317.88252766 au
    <S**2>     :  4.3194
    Trans. Mom.:  0.0123 X   0.0279 Y  -0.1225 Z
    Strength   :     0.0017914831
    D(  143) --> V(    1) amplitude =  0.2650 alpha
    D(  142) --> S(    1) amplitude =  0.2590 beta
    D(  142) --> S(    2) amplitude = -0.2065 beta
    D(  143) --> S(    1) amplitude =  0.2053 beta
    D(  144) --> S(    1) amplitude =  0.2371 beta
    D(  144) --> S(    2) amplitude =  0.4244 beta
    D(  147) --> S(    1) amplitude =  0.1639 beta
    D(  160) --> V(    8) amplitude = -0.1535 beta
    D(  160) --> V(    9) amplitude =  0.3462 beta
    D(  160) --> V(   10) amplitude =  0.3779 beta

 Excited state  81: excitation energy (eV) =    4.5963
 Total energy for state 81:                 -3317.88236953 au
    <S**2>     :  4.1859
    Trans. Mom.: -0.0428 X  -0.0074 Y  -0.0064 Z
    Strength   :     0.0002167103
    S(    2) --> V(    4) amplitude =  0.4068 alpha
    S(    2) --> V(    5) amplitude =  0.5345 alpha
[...]
  1.9163   1.9177   1.9227   1.9240   1.9273   1.9351   1.9369   1.9388
  1.9423   1.9503   1.9547   1.9578   1.9604   1.9644   1.9665   1.9692
  1.9748   1.9811   1.9841   1.9916   1.9971   1.9984   2.0025   2.0046
  2.0082   2.0107   2.0135   2.0161   2.0208   2.0224   2.0254   2.0302
  2.0319   2.0366   2.0388   2.0470   2.0506   2.0535   2.0554   2.0615
  2.0665   2.0695   2.0741   2.0760   2.0803   2.0863   2.0898   2.0947
  2.0976   2.1051   2.1090   2.1120   2.1143   2.1209   2.1219   2.1242
  2.1284   2.1310   2.1395   2.1440   2.1455   2.1519   2.1581   2.1599
  2.1684   2.1719   2.1777   2.1802   2.1856   2.1880   2.1946   2.1984
  2.2013   2.2078   2.2121   2.2161   2.2238   2.2289   2.2304   2.2351
  2.2432   2.2435   2.2507   2.2512   2.2565   2.2574   2.2676   2.2685
  2.2768   2.2797   2.2847   2.2850   2.2964   2.3006   2.3052   2.3098
  2.3120   2.3156   2.3296   2.3325   2.3354   2.3404   2.3451   2.3503
  2.3555   2.3578   2.3689   2.3731   2.3778   2.3825   2.3882   2.3921
  2.3987   2.3996   2.4056   2.4117   2.4190   2.4200   2.4247   2.4285
  2.4332   2.4374   2.4469   2.4512   2.4534   2.4555   2.4656   2.4766
  2.4840   2.4869   2.4887   2.4926   2.4983   2.5028   2.5119   2.5154
  2.5202   2.5238   2.5323   2.5350   2.5412   2.5433   2.5485   2.5527
  2.5600   2.5620   2.5714   2.5854   2.5896   2.5967   2.5989   2.6049
  2.6103   2.6131   2.6149   2.6188   2.6260   2.6324   2.6386   2.6453
  2.6550   2.6639   2.6680   2.6694   2.6736   2.6810   2.6866   2.6994
  2.7109   2.7117   2.7192   2.7286   2.7336   2.7357   2.7390   2.7496
  2.7534   2.7602   2.7704   2.7718   2.7720   2.7824   2.7917   2.8031
  2.8036   2.8078   2.8156   2.8210   2.8245   2.8449   2.8522   2.8534
  2.8675   2.8697   2.8806   2.8846   2.8936   2.9097   2.9118   2.9172
  2.9207   2.9386   2.9458   2.9552   2.9624   2.9842   2.9895   3.0057
  3.0107   3.0161   3.0257   3.0344   3.0460   3.0530   3.0599   3.0718
  3.0804   3.0978   3.1093   3.1340   3.1464   3.1707   3.1839   3.2035
  3.2198   3.2288   3.2405   3.2452   3.2683   3.2877   3.3136   3.3319
  3.3420   3.3562   3.3714   3.3927   3.4332   3.4447   3.4480   3.4535
  3.4543   3.4563   3.4734   3.4805   3.4828   3.4862   3.4880   3.4939
  3.5054   3.5075   3.5097   3.5156   3.5274   3.5324   3.5331   3.5409
  3.5465   3.5486   3.5586   3.5630   3.5676   3.5724   3.5777   3.5836
  3.5895   3.5938   3.5976   3.6080   3.6110   3.6295   3.6329   3.6424
  3.6464   3.6580   3.6677   3.6783   3.6825   3.6878   3.6990   3.7161
  3.7172   3.7220   3.7357   3.7441   3.7652   3.7710   3.7827   3.7869
  3.7965   3.7998   3.8183   3.8192   3.8355   3.8435   3.8520   3.8675
  3.8764   3.9010   3.9201   3.9226   3.9423   3.9518   3.9577   3.9686
  3.9872   3.9986   4.0168   4.0446   4.0632   4.0713   4.0842   4.1001
  4.1556   4.1618   4.1858   4.2145   4.2377   4.2732   4.3094   4.3937
  4.4488   4.4854   4.5216   4.5619   4.6419   4.8354
 
 Beta MOs
 -- Occupied --
******** -29.8563 -25.7058 -25.6952 -25.6861 -19.0605 -19.0465 -19.0443
-19.0427 -19.0363 -19.0309 -19.0287 -19.0284 -19.0260 -19.0142 -19.0139
-19.0109 -19.0094 -14.3369 -14.3257 -14.2680 -14.2668 -10.2129 -10.2111
-10.2078 -10.2059 -10.2002 -10.1995 -10.1986 -10.1686 -10.1560 -10.1504
-10.1448 -10.1445 -10.1278 -10.1166 -10.1162 -10.1147 -10.1134 -10.1089
-10.1076 -10.1042 -10.1025 -10.0982  -3.3327  -2.1259  -2.0957  -2.0796
 -1.0488  -1.0347  -1.0218  -1.0032  -1.0018  -0.9962  -0.9943  -0.9792
 -0.9646  -0.9452  -0.9261  -0.9155  -0.9149  -0.8864  -0.8831  -0.8236
 -0.8170  -0.7700  -0.7665  -0.7490  -0.7331  -0.7227  -0.7045  -0.6962
 -0.6868  -0.6659  -0.6554  -0.6179  -0.6085  -0.5922  -0.5676  -0.5633
 -0.5351  -0.5321  -0.5205  -0.5111  -0.5059  -0.5007  -0.4903  -0.4832
 -0.4737  -0.4675  -0.4655  -0.4618  -0.4530  -0.4500  -0.4477  -0.4468
 -0.4402  -0.4372  -0.4295  -0.4268  -0.4218  -0.4178  -0.4126  -0.4097
 -0.4054  -0.4010  -0.3972  -0.3916  -0.3905  -0.3857  -0.3850  -0.3822
 -0.3797  -0.3788  -0.3777  -0.3735  -0.3711  -0.3678  -0.3669  -0.3634
 -0.3599  -0.3536  -0.3515  -0.3493  -0.3464  -0.3436  -0.3400  -0.3340
 -0.3284  -0.3241  -0.3113  -0.3078  -0.3054  -0.3039  -0.3015  -0.2981
 -0.2944  -0.2935  -0.2863  -0.2780  -0.2720  -0.2620  -0.2614  -0.2549
 -0.2460  -0.2404  -0.2401  -0.2369  -0.2296  -0.2288  -0.2280  -0.2243
 -0.2205  -0.2201  -0.2182  -0.2119  -0.2100  -0.1893  -0.1778  -0.1641
 -- Virtual --
 -0.0644  -0.0591  -0.0174  -0.0080  -0.0039   0.0003   0.0009   0.0030
  0.0054   0.0078   0.0086   0.0124   0.0151   0.0169   0.0206   0.0218
  0.0242   0.0286   0.0305   0.0323   0.0327   0.0357   0.0381   0.0401
  0.0424   0.0451   0.0455   0.0477   0.0500   0.0529   0.0536   0.0559
  0.0578   0.0602   0.0620   0.0635   0.0667   0.0705   0.0718   0.0726
  0.0760   0.0763   0.0789   0.0795   0.0820   0.0843   0.0859   0.0904
  0.0910   0.0931   0.0944   0.0952   0.0977   0.1000   0.1017   0.1038
  0.1044   0.1062   0.1070   0.1091   0.1103   0.1114   0.1130   0.1148
  0.1152   0.1176   0.1185   0.1201   0.1212   0.1224   0.1239   0.1246
  0.1270   0.1282   0.1293   0.1328   0.1342   0.1374   0.1376   0.1399
  0.1429   0.1437   0.1447   0.1454   0.1489   0.1497   0.1500   0.1513
  0.1538   0.1549   0.1564   0.1573   0.1597   0.1620   0.1635   0.1649
  0.1656   0.1671   0.1683   0.1690   0.1711   0.1723   0.1742   0.1767
  0.1777   0.1803   0.1815   0.1825   0.1858   0.1873   0.1877   0.1884
  0.1907   0.1923   0.1947   0.1951   0.1976   0.1981   0.1999   0.2007
  0.2047   0.2053   0.2069   0.2076   0.2092   0.2126   0.2140   0.2160
  0.2178   0.2190   0.2210   0.2229   0.2239   0.2258   0.2264   0.2293
  0.2308   0.2318   0.2328   0.2351   0.2362   0.2384   0.2400   0.2403
  0.2429   0.2441   0.2446   0.2472   0.2479   0.2494   0.2520   0.2532
  0.2540   0.2560   0.2572   0.2580   0.2619   0.2632   0.2637   0.2661
  0.2668   0.2690   0.2720   0.2725   0.2742   0.2754   0.2781   0.2790
  0.2796   0.2810   0.2825   0.2852   0.2873   0.2888   0.2908   0.2924
  0.2928   0.2932   0.2959   0.2969   0.2993   0.3012   0.3025   0.3034
  0.3057   0.3084   0.3093   0.3106   0.3119   0.3153   0.3158   0.3184
  0.3188   0.3219   0.3241   0.3254   0.3264   0.3273   0.3299   0.3312
  0.3315   0.3348   0.3363   0.3368   0.3396   0.3404   0.3428   0.3441
  0.3449   0.3484   0.3492   0.3510   0.3518   0.3543   0.3549   0.3561
  0.3579   0.3601   0.3613   0.3621   0.3653   0.3662   0.3689   0.3694
  0.3719   0.3743   0.3760   0.3777   0.3797   0.3812   0.3853   0.3857
  0.3878   0.3909   0.3926   0.3934   0.3957   0.3970   0.3972   0.4012
  0.4039   0.4050   0.4064   0.4093   0.4111   0.4117   0.4147   0.4178
  0.4189   0.4203   0.4217   0.4242   0.4267   0.4277   0.4300   0.4301
  0.4311   0.4368   0.4398   0.4416   0.4439   0.4450   0.4468   0.4497
  0.4515   0.4534   0.4550   0.4579   0.4612   0.4632   0.4639   0.4673
  0.4682   0.4708   0.4710   0.4757   0.4791   0.4806   0.4829   0.4843
  0.4866   0.4882   0.4897   0.4915   0.4936   0.4946   0.4973   0.4995
  0.5010   0.5019   0.5050   0.5065   0.5110   0.5123   0.5160   0.5181
  0.5185   0.5220   0.5251   0.5263   0.5292   0.5303   0.5321   0.5329
  0.5360   0.5375   0.5383   0.5415   0.5452   0.5457   0.5480   0.5492
  0.5545   0.5562   0.5576   0.5611   0.5635   0.5665   0.5666   0.5675
  0.5712   0.5719   0.5734   0.5788   0.5802   0.5823   0.5860   0.5869
  0.5882   0.5909   0.5918   0.5948   0.5958   0.5978   0.5983   0.6016
  0.6039   0.6054   0.6081   0.6091   0.6123   0.6150   0.6162   0.6213
  0.6240   0.6250   0.6268   0.6274   0.6290   0.6309   0.6349   0.6360
  0.6375   0.6389   0.6409   0.6416   0.6434   0.6483   0.6528   0.6539
  0.6551   0.6607   0.6622   0.6628   0.6675   0.6690   0.6696   0.6728
  0.6738   0.6760   0.6778   0.6789   0.6820   0.6868   0.6892   0.6914
  0.6940   0.6950   0.6957   0.6979   0.7002   0.7021   0.7033   0.7057
  0.7084   0.7122   0.7129   0.7165   0.7190   0.7244   0.7257   0.7270
  0.7300   0.7303   0.7322   0.7346   0.7378   0.7381   0.7411   0.7434
  0.7449   0.7468   0.7489   0.7514   0.7530   0.7571   0.7604   0.7615
  0.7635   0.7659   0.7702   0.7715   0.7728   0.7755   0.7775   0.7802
  0.7827   0.7865   0.7872   0.7901   0.7910   0.7941   0.7954   0.7982
  0.8009   0.8036   0.8057   0.8096   0.8130   0.8160   0.8185   0.8201
  0.8212   0.8234   0.8262   0.8292   0.8298   0.8325   0.8371   0.8403
  0.8407   0.8437   0.8456   0.8480   0.8488   0.8527   0.8541   0.8559
  0.8599   0.8629   0.8647   0.8712   0.8759   0.8763   0.8787   0.8830
  0.8873   0.8875   0.8898   0.8918   0.8962   0.8976   0.8998   0.9057
  0.9069   0.9087   0.9110   0.9134   0.9181   0.9213   0.9245   0.9267
  0.9300   0.9355   0.9365   0.9413   0.9434   0.9469   0.9501   0.9524
  0.9552   0.9573   0.9589   0.9649   0.9681   0.9720   0.9762   0.9781
  0.9811   0.9845   0.9864   0.9904   0.9922   0.9973   0.9988   1.0028
  1.0063   1.0086   1.0127   1.0141   1.0203   1.0238   1.0258   1.0293
  1.0305   1.0342   1.0360   1.0385   1.0403   1.0436   1.0466   1.0506
  1.0530   1.0555   1.0579   1.0638   1.0680   1.0713   1.0774   1.0786
  1.0828   1.0855   1.0903   1.0924   1.0963   1.0985   1.1033   1.1072
  1.1098   1.1137   1.1175   1.1202   1.1268   1.1310   1.1341   1.1352
  1.1380   1.1400   1.1463   1.1484   1.1526   1.1552   1.1586   1.1605
  1.1669   1.1683   1.1713   1.1770   1.1783   1.1817   1.1843   1.1905
  1.1952   1.1981   1.1988   1.2040   1.2093   1.2145   1.2186   1.2222
  1.2280   1.2294   1.2312   1.2322   1.2395   1.2441   1.2455   1.2478
  1.2521   1.2546   1.2597   1.2619   1.2664   1.2707   1.2741   1.2752
  1.2792   1.2825   1.2826   1.2856   1.2863   1.2916   1.2981   1.3018
  1.3051   1.3057   1.3137   1.3169   1.3212   1.3223   1.3264   1.3291
  1.3316   1.3357   1.3387   1.3428   1.3457   1.3482   1.3596   1.3619
  1.3685   1.3697   1.3738   1.3796   1.3844   1.3905   1.3934   1.3979
  1.3987   1.4074   1.4110   1.4127   1.4139   1.4178   1.4223   1.4302
  1.4341   1.4368   1.4381   1.4414   1.4451   1.4522   1.4538   1.4578
  1.4635   1.4658   1.4708   1.4749   1.4814   1.4849   1.4920   1.4973
  1.5006   1.5045   1.5062   1.5107   1.5147   1.5183   1.5206   1.5223
  1.5274   1.5316   1.5369   1.5380   1.5426   1.5481   1.5511   1.5574
  1.5613   1.5648   1.5693   1.5706   1.5769   1.5794   1.5847   1.5895
  1.5923   1.5969   1.5992   1.6052   1.6111   1.6122   1.6181   1.6221
  1.6255   1.6284   1.6325   1.6352   1.6392   1.6421   1.6489   1.6521
  1.6548   1.6607   1.6629   1.6651   1.6714   1.6740   1.6769   1.6809
  1.6844   1.6882   1.6924   1.6953   1.6983   1.7028   1.7099   1.7129
  1.7142   1.7199   1.7220   1.7255   1.7340   1.7366   1.7377   1.7424
  1.7457   1.7492   1.7514   1.7541   1.7575   1.7633   1.7687   1.7717
  1.7728   1.7787   1.7811   1.7880   1.7951   1.7965   1.7981   1.8027
  1.8064   1.8121   1.8124   1.8161   1.8204   1.8238   1.8348   1.8368
  1.8435   1.8462   1.8526   1.8542   1.8558   1.8617   1.8620   1.8672
  1.8713   1.8764   1.8782   1.8791   1.8840   1.8936   1.8941   1.8990
  1.9090   1.9117   1.9125   1.9180   1.9196   1.9253   1.9266   1.9293
  1.9363   1.9387   1.9415   1.9438   1.9517   1.9576   1.9595   1.9616
  1.9670   1.9683   1.9697   1.9762   1.9833   1.9851   1.9921   1.9985
  1.9999   2.0035   2.0059   2.0098   2.0137   2.0160   2.0175   2.0218
  2.0237   2.0266   2.0320   2.0330   2.0377   2.0414   2.0497   2.0521
  2.0551   2.0582   2.0622   2.0673   2.0718   2.0757   2.0778   2.0832
  2.0878   2.0909   2.0962   2.0986   2.1061   2.1099   2.1135   2.1159
  2.1225   2.1236   2.1257   2.1313   2.1325   2.1402   2.1467   2.1480
  2.1531   2.1609   2.1616   2.1699   2.1730   2.1814   2.1830   2.1878
  2.1918   2.1957   2.1994   2.2025   2.2092   2.2129   2.2172   2.2256
  2.2293   2.2323   2.2374   2.2442   2.2451   2.2519   2.2528   2.2574
  2.2592   2.2692   2.2706   2.2785   2.2810   2.2864   2.2867   2.2979
  2.3015   2.3068   2.3113   2.3149   2.3176   2.3308   2.3336   2.3386
  2.3423   2.3472   2.3514   2.3563   2.3616   2.3728   2.3782   2.3790
  2.3840   2.3891   2.3959   2.3998   2.4022   2.4096   2.4125   2.4199
  2.4226   2.4274   2.4305   2.4369   2.4408   2.4480   2.4532   2.4564
  2.4572   2.4672   2.4794   2.4852   2.4880   2.4909   2.4960   2.5005
  2.5054   2.5129   2.5192   2.5212   2.5273   2.5343   2.5378   2.5429
  2.5456   2.5494   2.5544   2.5623   2.5638   2.5724   2.5882   2.5905
  2.5976   2.6002   2.6061   2.6118   2.6142   2.6178   2.6204   2.6295
  2.6353   2.6420   2.6473   2.6566   2.6652   2.6700   2.6740   2.6748
  2.6830   2.6890   2.7021   2.7139   2.7158   2.7220   2.7300   2.7349
  2.7369   2.7404   2.7506   2.7542   2.7619   2.7712   2.7738   2.7775
  2.7847   2.7922   2.8044   2.8048   2.8090   2.8198   2.8225   2.8258
  2.8478   2.8542   2.8561   2.8695   2.8725   2.8828   2.8858   2.8942
  2.9106   2.9127   2.9180   2.9216   2.9413   2.9478   2.9573   2.9642
  2.9857   2.9926   3.0066   3.0121   3.0184   3.0278   3.0409   3.0502
  3.0613   3.0628   3.0746   3.0889   3.1002   3.1133   3.1380   3.1491
  3.1728   3.1849   3.2044   3.2235   3.2337   3.2435   3.2506   3.2736
  3.2978   3.3155   3.3329   3.3439   3.3586   3.3728   3.3952   3.4334
  3.4452   3.4489   3.4544   3.4549   3.4583   3.4756   3.4816   3.4835
  3.4873   3.4901   3.4952   3.5060   3.5081   3.5104   3.5183   3.5301
  3.5338   3.5340   3.5414   3.5479   3.5511   3.5614   3.5650   3.5698
  3.5769   3.5793   3.5865   3.5926   3.5974   3.6027   3.6112   3.6139
  3.6321   3.6352   3.6449   3.6501   3.6631   3.6685   3.6825   3.6854
  3.6904   3.7004   3.7177   3.7191   3.7293   3.7402   3.7472   3.7681
  3.7754   3.7868   3.7942   3.8031   3.8107   3.8215   3.8252   3.8423
  3.8476   3.8635   3.8740   3.8831   3.9025   3.9241   3.9370   3.9488
  3.9596   3.9671   3.9745   3.9938   4.0083   4.0261   4.0623   4.0721
  4.0866   4.1036   4.1191   4.1630   4.1760   4.1920   4.2706   4.2952
  4.3279   4.3700   4.4158   4.5022   4.5233   4.5638   4.5958   4.7325
  4.8447
 --------------------------------------------------------------
 
          Ground-State Mulliken Net Atomic Charges

     Atom                 Charge (a.u.)    Spin (a.u.)
  --------------------------------------------------------
      1 N                     0.741303       0.002305
      2 C                     0.627683      -0.001186
      3 H                    -0.348513      -0.000032
      4 N                     0.138321       0.000652
      5 H                    -0.002470       0.000683
      6 C                     1.117726       0.000073
      7 O                    -0.893750      -0.000010
      8 C                     0.340211       0.002453
      9 O                    -0.874314      -0.000492
     10 C                    -0.734353      -0.003161
     11 C                     0.852612      -0.002926
     12 H                     0.030119      -0.001027
     13 H                     0.036944       0.000137
     14 H                    -0.380541      -0.000307
     15 C                     0.929081      -0.002216
     16 H                    -0.387588      -0.002392
     17 H                    -0.214367      -0.000223
     18 C                    -0.077462       0.025169
     19 C                     0.989772      -0.007196
     20 C                     0.639808       0.008575
     21 H                    -0.310952       0.000850
     22 H                    -0.606571       0.003050
     23 C                     0.521023      -0.002661
     24 O                    -0.890624       0.000103
     25 N                     0.283506       0.000277
     26 H                     0.079579       0.000133
     27 C                     1.082562       0.000054
     28 O                    -0.948905       0.000007
     29 N                     0.722494       0.018278
     30 C                    -0.737612      -0.018974
     31 C                     1.396471       0.003273
     32 H                    -0.327397       0.000606
     33 H                    -0.232187      -0.000293
     34 H                    -0.085236      -0.000695
     35 C                     0.680352      -0.001293
     36 H                    -0.510540       0.000918
     37 H                    -0.375089       0.000213
     38 C                     1.010712      -0.000443
     39 H                    -0.280468       0.000438
     40 H                    -0.687743      -0.001015
     41 C                     0.961936       0.000929
     42 H                    -0.542692       0.005134
     43 H                    -0.411187      -0.000065
     44 C                     0.711679      -0.000133
     45 H                    -0.198711      -0.000000
     46 H                    -0.371340       0.000021
     47 C                     0.556581       0.000017
     48 H                    -0.465406       0.000012
     49 C                     0.793215      -0.000198
     50 H                    -0.375938      -0.000307
     51 H                    -0.335991      -0.000298
     52 C                     0.831868       0.000280
     53 H                    -0.450853       0.001200
     54 H                    -0.432176       0.001078
     55 C                     1.033403      -0.003473
     56 H                    -0.590942      -0.003803
     57 H                    -0.321397       0.000199
     58 C                     0.424000       0.003997
     59 H                    -0.304006       0.000696
     60 H                    -0.396899       0.000144
     61 O                    -0.881918       0.000020
     62 O                    -0.897044       0.000052
     63 O                    -0.797492      -0.015781
     64 Fe                    2.396318       2.715384
     65 O                    -0.905816       0.018785
     66 O                    -0.760772       0.130081
     67 O                    -0.680259       0.007270
     68 O                    -1.180703       0.064640
     69 O                    -0.906848      -0.001972
     70 O                    -0.814206       0.054387
  --------------------------------------------------------
  Sum of atomic charges =    -3.000000
  Sum of spin   charges =     3.000000

 -----------------------------------------------------------------
                    Cartesian Multipole Moments
 -----------------------------------------------------------------
    Charge (ESU x 10^10)
               -14.4096
    Dipole Moment (Debye)
         X      -1.5203      Y      23.4082      Z      -4.4609
       Tot      23.8780
    Quadrupole Moments (Debye-Ang)
        XX    -502.0532     XY     -43.3873     YY    -319.4344
        XZ      -8.0791     YZ     -47.0646     ZZ    -326.2584
    Octopole Moments (Debye-Ang^2)
       XXX    -469.8908    XXY     717.7997    XYY     115.6374
       YYY     380.5476    XXZ     243.9778    XYZ     106.7375
       YYZ      97.8139    XZZ     116.3075    YZZ     107.2836
       ZZZ    -156.6020
    Hexadecapole Moments (Debye-Ang^3)
      XXXX  -27137.1078   XXXY    -687.5106   XXYY   -5326.4839
      XYYY   -1005.7696   YYYY   -7839.7451   XXXZ    -261.6721
      XXYZ   -1089.8340   XYYZ    -403.5818   YYYZ    -564.1581
      XXZZ   -4155.7813   XYZZ    -349.5579   YYZZ   -2092.2535
      XZZZ      62.3108   YZZZ    -142.7296   ZZZZ   -4450.9098
 -----------------------------------------------------------------
 Total job time:  192790.13s(wall), 2771876.34s(cpu) 
 Sun Jun  2 14:40:07 2024

        *************************************************************
        *                                                           *
        *  Thank you very much for using Q-Chem.  Have a nice day.  *
        *                                                           *
        *************************************************************


remove work dirs /scratch/qchem_scratch/qchem44671.0 -- /scratch/qchem_scratch/qchem44671.0
rm -rf /scratch/qchem_scratch/qchem44671.0
rm -rf /scratch/qchem_scratch/qchem44671
