
Running Job 1 of 1 C_FeAB_C_ctL_3sextet_SfS_tpsshD3bj_ccpvdz_pcmH2O_OPT.in
qchem C_FeAB_C_ctL_3sextet_SfS_tpsshD3bj_ccpvdz_pcmH2O_OPT.in_3234298.0 /var/scratch/qchem3234298/ 0
/usr/local/q-chem/exe/qcprog.exe_s C_FeAB_C_ctL_3sextet_SfS_tpsshD3bj_ccpvdz_pcmH2O_OPT.in_3234298.0 /var/scratch/qchem3234298/
                  Welcome to Q-Chem
     A Quantum Leap Into The Future Of Chemistry


 Q-Chem 6.0, Q-Chem, Inc., Pleasanton, CA (2022)

 E. Epifanovsky,  A. T. B. Gilbert,  Xintian Feng,  Joonho Lee,  Yuezhi Mao,  
 N. Mardirossian,  P. Pokhilko,  A. White,  M. Wormit,  M. P. Coons,  
 A. L. Dempwolff,  Zhengting Gan,  D. Hait,  P. R. Horn,  L. D. Jacobson,  
 I. Kaliman,  J. Kussmann,  A. W. Lange,  Ka Un Lao,  D. S. Levine,  Jie Liu,  
 S. C. McKenzie,  A. F. Morrison,  K. Nanda,  F. Plasser,  D. R. Rehn,  
 M. L. Vidal,  Zhi-Qiang You,  Ying Zhu,  B. Alam,  B. Albrecht,  
 A. Aldossary,  E. Alguire,  J. H. Andersen,  V. Athavale,  D. Barton,  
 K. Begam,  A. Behn,  N. Bellonzi,  Y. A. Bernard,  E. J. Berquist,  
 H. Burton,  A. Carreras,  K. Carter-Fenk,  Romit Chakraborty,  
 Chandrima Chakravarty,  Junhan Chen,  A. D. Chien,  K. D. Closser,  
 V. Cofer-Shabica,  L. Cunha,  S. Dasgupta,  Jia Deng,  M. de Wergifosse,  
 M. Diedenhofen,  Hainam Do,  S. Ehlert,  Po-Tung Fang,  S. Fatehi,  
 Qingguo Feng,  T. Friedhoff,  B. Ganoe,  J. Gayvert,  Qinghui Ge,  
 G. Gidofalvi,  M. Goldey,  J. Gomes,  C. Gonzalez-Espinoza,  S. Gulania,  
 A. Gunina,  J. A. Gyamfi,  M. W. D. Hanson-Heine,  P. H. P. Harbach,  
 A. W. Hauser,  M. F. Herbst,  M. Hernandez Vera,  M. Hodecker,  
 Z. C. Holden,  S. Houck,  Xunkun Huang,  Kerwin Hui,  B. C. Huynh,  
 K. Ikeda,  M. Ivanov,  Hyunjun Ji,  Zuxin Jin,  Hanjie Jiang,  B. Kaduk,  
 S. Kaehler,  R. Kang,  K. Khistyaev,  Jaehoon Kim,  Yongbin Kim,  
 P. Klunzinger,  Z. Koczor-Benda,  Joong Hoon Koh,  D. Kosenkov,  
 Saikiran Kotaru,  L. Koulias,  T. Kowalczyk,  C. M. Krauter,  K. Kue,  
 A. Kunitsa,  T. Kus,  A. Landau,  K. V. Lawler,  D. Lefrancois,  S. Lehtola,  
 Rain Li,  Shaozhi Li,  Yi-Pei Li,  Jiashu Liang,  M. Liebenthal,  
 Hung-Hsuan Lin,  You-Sheng Lin,  Fenglai Liu,  Kuan-Yu Liu,  
 M. Loipersberger,  A. Luenser,  C. Malbon,  A. Manjanath,  P. Manohar,  
 E. Mansoor,  S. F. Manzer,  Shan-Ping Mao,  A. V. Marenich,  T. Markovich,  
 S. Mason,  F. Matz,  S. A. Maurer,  P. F. McLaughlin,  M. F. S. J. Menger,  
 J.-M. Mewes,  S. A. Mewes,  P. Morgante,  Mohammad Mostafanejad,  
 J. W. Mullinax,  K. J. Oosterbaan,  G. Paran,  V. Parravicini,  
 Alexander C. Paul,  Suranjan K. Paul,  F. Pavosevic,  Zheng Pei,  S. Prager,  
 E. I. Proynov,  E. Ramos,  B. Rana,  A. E. Rask,  A. Rettig,  R. M. Richard,  
 F. Rob,  E. Rossomme,  T. Scheele,  M. Scheurer,  M. Schneider,  
 P. E. Schneider,  N. Sergueev,  S. M. Sharada,  Hengyuan Shen,  
 W. Skomorowski,  D. W. Small,  C. J. Stein,  Yingli Su,  Yu-Chuan Su,  
 E. J. Sundstrom,  Zhen Tao,  J. Thirman,  Hung-Yi Tsai,  T. Tsuchimochi,  
 N. M. Tubman,  C. Utku,  S. P. Veccham,  O. Vydrov,  J. Wenzel,  
 Jonathan Wong,  J. Witte,  A. Yamada,  Chou-Hsun Yang,  Kun Yao,  
 S. Yeganeh,  S. R. Yost,  A. Zech,  F. Zeller,  Igor Ying Zhang,  
 Xing Zhang,  Yu Zhang,  D. Zuev,  A. Aspuru-Guzik,  A. T. Bell,  
 N. A. Besley,  K. B. Bravaya,  B. R. Brooks,  D. Casanova,  Jeng-Da Chai,  
 Hsing-Ta Chen,  S. Coriani,  C. J. Cramer,  A. E. DePrince, III,  
 R. A. DiStasio Jr.,  A. Dreuw,  B. D. Dunietz,  T. R. Furlani,  
 W. A. Goddard III,  S. Grimme,  S. Hammes-Schiffer,  T. Head-Gordon,  
 W. J. Hehre,  Chao-Ping Hsu,  T.-C. Jagau,  Yousung Jung,  A. Klamt,  
 Jing Kong,  D. S. Lambrecht,  Xiangyuan Li,  WanZhen Liang,  N. J. Mayhall,  
 C. W. McCurdy,  J. B. Neaton,  T. Neudecker,  C. Ochsenfeld,  
 J. A. Parkhill,  R. Peverati,  V. A. Rassolov,  Haisheng Ren,  Yihan Shao,  
 L. V. Slipchenko,  R. P. Steele,  J. E. Subotnik,  A. J. W. Thom,  
 A. Tkatchenko,  D. G. Truhlar,  T. Van Voorhis,  Fan Wang,  
 T. A. Wesolowski,  K. B. Whaley,  H. L. Woodcock III,  P. M. Zimmerman,  
 S. Faraji,  P. M. W. Gill,  M. Head-Gordon,  J. M. Herbert,  A. I. Krylov

 Contributors to earlier versions of Q-Chem not listed above: 
 R. D. Adamson,  B. Austin,  R. Baer,  J. Baker,  G. J. O. Beran,  
 K. Brandhorst,  S. T. Brown,  E. F. C. Byrd,  Arup K. Chakraborty,  
 G. K. L. Chan,  Chun-Min Chang,  Yunqing Chen,  C.-L. Cheng,  
 Siu Hung Chien,  D. M. Chipman,  D. L. Crittenden,  H. Dachsel,  
 R. J. Doerksen,  A. D. Dutoi,  R. G. Edgar,  J. Fosso-Tande,  
 L. Fusti-Molnar,  D. Ghosh,  A. Ghysels,  A. Golubeva-Zadorozhnaya,  
 J. Gonthier,  M. S. Gordon,  S. R. Gwaltney,  G. Hawkins,  J. E. Herr,  
 A. Heyden,  S. Hirata,  E. G. Hohenstein,  G. Kedziora,  F. J. Keil,  
 C. Kelley,  Jihan Kim,  R. A. King,  R. Z. Khaliullin,  P. P. Korambath,  
 W. Kurlancheek,  A. Laurent,  A. M. Lee,  M. S. Lee,  S. V. Levchenko,  
 Ching Yeh Lin,  D. Liotard,  E. Livshits,  R. C. Lochan,  I. Lotan,  
 L. A. Martinez-Martinez,  P. E. Maslen,  N. Nair,  D. P. O'Neill,  
 D. Neuhauser,  E. Neuscamman,  C. M. Oana,  R. Olivares-Amaya,  R. Olson,  
 T. M. Perrine,  B. Peters,  P. A. Pieniazek,  A. Prociuk,  Y. M. Rhee,  
 J. Ritchie,  M. A. Rohrdanz,  E. Rosta,  N. J. Russ,  H. F. Schaefer III,  
 M. W. Schmidt,  N. E. Schultz,  S. Sharma,  N. Shenvi,  C. D. Sherrill,  
 A. C. Simmonett,  A. Sodt,  T. Stein,  D. Stuck,  K. S. Thanthiriwatte,  
 V. Vanovschi,  L. Vogt,  Tao Wang,  A. Warshel,  M. A. Watson,  
 C. F. Williams,  Q. Wu,  X. Xu,  Jun Yang,  W. Zhang,  Yan Zhao

   Please cite Q-Chem as follows:
  "Software for the frontiers of quantum chemistry:
   An overview of developments in the Q-Chem 5 package"
   J. Chem. Phys. 155, 084801 (2021)
   https://doi.org/10.1063/5.0055522 (open access)

 Q-Chem 6.0.2 for Intel X86 EM64T Linux

 Parts of Q-Chem use Armadillo 9.900.5 (Nocturnal Misbehaviour).
 http://arma.sourceforge.net/

 Q-Chem begins on Wed May 22 12:29:53 2024  

 Host: 
0

     Scratch files written to /var/scratch/qchem3234298//
 Dec722 |scratch|qcdevops|jenkins|workspace|build_RNUM 8907   
 Processing $rem in /usr/local/q-chem/config/preferences:
 Processing $rem in /home/acooksy/.qchemrc:
 Symmetry turned off for PCM/SM12/SMD calculation

 Checking the input file for inconsistencies... 	...done.

--------------------------------------------------------------
User input:
--------------------------------------------------------------
$molecule
-3 6
C   -2.7882818    1.9175589    1.5547403
C   -2.8343179   -1.4324084   -1.3806776
H   -3.4393038   -2.3544092   -1.3031691
N   -1.9326077   -1.3753158   -0.2433372
H   -0.9483991   -1.1983984   -0.4441571
C   -2.0050620   -1.5355220   -2.6949605
O   -2.6745178   -1.6039800   -3.7552653
C   -2.2724697   -1.5914051    1.0395353
O   -3.4521867   -1.7384156    1.4137300
N   -2.4951436    2.9000891    0.6849483
C   -3.4225843    3.4040185   -0.3431838
H   -2.7998431    4.0488650   -0.9750652
H   -4.1867995    4.0397158    0.1295453
C   -1.1209886   -1.8402710    2.0136167
H   -0.8619145   -2.8960851    1.8367795
H   -1.5255504   -1.7661383    3.0307023
C    0.2042206   -1.0137081    1.9314112
C    0.3079662    0.0025873    3.1109460
C    1.4240518   -1.9647445    2.1383291
H    1.2048368   -2.6665288    2.9574186
H    2.2962814   -1.3628947    2.4325127
C    1.7522120   -2.7360658    0.8700333
O    0.9435864   -3.5042217    0.3205785
N    2.9874158   -2.5062038    0.3882090
H    3.6466327   -1.9024448    0.8780885
C    5.0651689   -2.7385355   -0.8618783
O    5.7145377   -3.2867185   -1.7859994
C    2.5708821    2.3209753   -0.4140392
N    1.8587706    1.8735067   -1.4386796
C    2.3310136    1.5252730   -2.7770685
H    3.3613362    1.8878776   -2.8777277
H    1.7003577    2.0744205   -3.4940210
C    4.0462165    2.5862735   -0.5277668
H    4.3500972    3.2015214    0.3286105
H    4.3136715    3.1051844   -1.4579861
C    2.2575881    0.0163107   -3.0318798
H    1.2074827   -0.3113600   -2.9956960
H    2.6201475   -0.1650624   -4.0589814
C    3.0838462   -0.7707325   -2.0168159
H    4.1537590   -0.5245730   -2.1382547
H    2.8015519   -0.4336462   -1.0069965
C    2.8857679   -2.2857954   -2.0756258
H    1.8089092   -2.5171311   -2.0908372
H    3.3319491   -2.7055053   -2.9922495
C    3.5300246   -2.9969122   -0.8664060
H    3.3488283   -4.0803902   -0.9532256
C   -4.0857045    2.2769942   -1.1554017
H   -4.5514195    2.7301559   -2.0468571
H   -4.9191006    1.8708063   -0.5597167
C   -4.1929849    1.7254104    2.0505830
H   -4.1722892    1.7656233    3.1508159
H   -4.8998471    2.4750742    1.6773991
C   -3.1452023    1.1166036   -1.5399314
H   -2.2757497    1.1037005   -0.8687646
H   -2.7381762    1.2675563   -2.5539072
C   -3.8232198   -0.2535005   -1.4398101
H   -4.4338072   -0.2891814   -0.5244935
H   -4.4933011   -0.4238380   -2.2971314
O   -0.7445189   -1.5324698   -2.5852629
O    5.5068617   -1.9716408    0.0419151
O    0.3620864   -0.3401112    0.7155127
Fe    0.1147535    1.5587985    0.8008820
O    0.6611197    1.2015178    2.7645425
O   -1.8560562    1.1873077    1.9716576
O   -1.1737404    2.9903432    0.3292074
O    1.9729365    2.4894485    0.7085375
O    0.1284832   -0.3743970    4.2765696
O    0.5443078    1.6295404   -1.2115159
H   -4.5261182    0.7158153    1.7652217
H    4.6038943    1.6356091   -0.4907083
$end

$rem
BASIS  =  gen
CORRELATION  =  TPSS
DFT_D  =  D3_BJ
EXCHANGE  =  TPSSH
GUI  =  2
JOB_TYPE  =  Optimization
SCF_CONVERGENCE  =  8
SOLVENT_METHOD  =  PCM
$end

$pcm
THEORY  CPCM
$end

$solvent
DIELECTRIC  78.39
$end

$van_der_waals
26   2.44
$end

!----------------------------------------------------------------------
! Basis Set Exchange
! Basis set: cc-pVDZ
!----------------------------------------------------------------------

$rem
BASIS GEN
PURECART 11
$end

$basis
H     0
S   4   1.00
1.301000D+01           1.968500D-02
1.962000D+00           1.379770D-01
4.446000D-01           4.781480D-01
1.220000D-01           5.012400D-01
S   1   1.00
1.220000D-01           1.000000D+00
P   1   1.00
7.270000D-01           1.0000000
****
C     0
S   9   1.00
6.665000D+03           6.920000D-04
1.000000D+03           5.329000D-03
2.280000D+02           2.707700D-02
6.471000D+01           1.017180D-01
2.106000D+01           2.747400D-01
7.495000D+00           4.485640D-01
2.797000D+00           2.850740D-01
5.215000D-01           1.520400D-02
1.596000D-01          -3.191000D-03
S   9   1.00
6.665000D+03          -1.460000D-04
1.000000D+03          -1.154000D-03
2.280000D+02          -5.725000D-03
6.471000D+01          -2.331200D-02
2.106000D+01          -6.395500D-02
7.495000D+00          -1.499810D-01
2.797000D+00          -1.272620D-01
5.215000D-01           5.445290D-01
1.596000D-01           5.804960D-01
S   1   1.00
1.596000D-01           1.000000D+00
P   4   1.00
9.439000D+00           3.810900D-02
2.002000D+00           2.094800D-01
5.456000D-01           5.085570D-01
1.517000D-01           4.688420D-01
P   1   1.00
1.517000D-01           1.000000D+00
D   1   1.00
5.500000D-01           1.0000000
****
N     0
S   9   1.00
9.046000D+03           7.000000D-04
1.357000D+03           5.389000D-03
3.093000D+02           2.740600D-02
8.773000D+01           1.032070D-01
2.856000D+01           2.787230D-01
1.021000D+01           4.485400D-01
3.838000D+00           2.782380D-01
7.466000D-01           1.544000D-02
2.248000D-01          -2.864000D-03
S   9   1.00
9.046000D+03          -1.530000D-04
1.357000D+03          -1.208000D-03
3.093000D+02          -5.992000D-03
8.773000D+01          -2.454400D-02
2.856000D+01          -6.745900D-02
1.021000D+01          -1.580780D-01
3.838000D+00          -1.218310D-01
7.466000D-01           5.490030D-01
2.248000D-01           5.788150D-01
S   1   1.00
2.248000D-01           1.000000D+00
P   4   1.00
1.355000D+01           3.991900D-02
2.917000D+00           2.171690D-01
7.973000D-01           5.103190D-01
2.185000D-01           4.622140D-01
P   1   1.00
2.185000D-01           1.000000D+00
D   1   1.00
8.170000D-01           1.0000000
****
O     0
S   9   1.00
1.172000D+04           7.100000D-04
1.759000D+03           5.470000D-03
4.008000D+02           2.783700D-02
1.137000D+02           1.048000D-01
3.703000D+01           2.830620D-01
1.327000D+01           4.487190D-01
5.025000D+00           2.709520D-01
1.013000D+00           1.545800D-02
3.023000D-01          -2.585000D-03
S   9   1.00
1.172000D+04          -1.600000D-04
1.759000D+03          -1.263000D-03
4.008000D+02          -6.267000D-03
1.137000D+02          -2.571600D-02
3.703000D+01          -7.092400D-02
1.327000D+01          -1.654110D-01
5.025000D+00          -1.169550D-01
1.013000D+00           5.573680D-01
3.023000D-01           5.727590D-01
S   1   1.00
3.023000D-01           1.000000D+00
P   4   1.00
1.770000D+01           4.301800D-02
3.854000D+00           2.289130D-01
1.046000D+00           5.087280D-01
2.753000D-01           4.605310D-01
P   1   1.00
2.753000D-01           1.000000D+00
D   1   1.00
1.185000D+00           1.0000000
****
Fe     0
S   20   1.00
4.316265D+06           8.048803D-06
6.463424D+05           6.258306D-05
1.470897D+05           3.290239D-04
4.166152D+04           1.387355D-03
1.359077D+04           5.023256D-03
4.905750D+03           1.610140D-02
1.912746D+03           4.590034D-02
7.926043D+02           1.136154D-01
3.448065D+02           2.283869D-01
1.558999D+02           3.221159D-01
7.223091D+01           2.383661D-01
3.272506D+01           7.404667D-02
1.566762D+01           9.214197D-02
7.503483D+00           9.339790D-02
3.312223D+00           1.573965D-02
1.558471D+00          -4.186682D-04
6.839140D-01           5.376318D-05
1.467570D-01          -3.816654D-05
7.058300D-02           4.319603D-05
3.144900D-02          -3.401019D-06
S   20   1.00
4.316265D+06          -4.155954D-06
6.463424D+05          -3.231401D-05
1.470897D+05          -1.699525D-04
4.166152D+04          -7.171369D-04
1.359077D+04          -2.603625D-03
4.905750D+03          -8.399109D-03
1.912746D+03          -2.434109D-02
7.926043D+02          -6.251948D-02
3.448065D+02          -1.365929D-01
1.558999D+02          -2.312707D-01
7.223091D+01          -2.383734D-01
3.272506D+01           3.123837D-02
1.566762D+01           5.086818D-01
7.503483D+00           4.987695D-01
3.312223D+00           9.033552D-02
1.558471D+00          -6.005337D-03
6.839140D-01           2.312454D-04
1.467570D-01          -5.643680D-04
7.058300D-02           4.992260D-04
3.144900D-02          -1.015293D-04
S   20   1.00
4.316265D+06           9.532178D-07
6.463424D+05           7.414605D-06
1.470897D+05           3.898393D-05
4.166152D+04           1.647152D-04
1.359077D+04           5.985980D-04
4.905750D+03           1.942390D-03
1.912746D+03           5.687237D-03
7.926043D+02           1.501329D-02
3.448065D+02           3.452455D-02
1.558999D+02           6.495820D-02
7.223091D+01           7.716194D-02
3.272506D+01          -1.873411D-02
1.566762D+01          -3.009185D-01
7.503483D+00          -4.554661D-01
3.312223D+00           1.286463D-01
1.558471D+00           7.183316D-01
6.839140D-01           4.051743D-01
1.467570D-01           2.168227D-02
7.058300D-02          -8.343566D-03
3.144900D-02           3.658979D-03
S   20   1.00
4.316265D+06          -2.063008D-07
6.463424D+05          -1.604169D-06
1.470897D+05          -8.438437D-06
4.166152D+04          -3.563151D-05
1.359077D+04          -1.295998D-04
4.905750D+03          -4.201534D-04
1.912746D+03          -1.231954D-03
7.926043D+02          -3.248922D-03
3.448065D+02          -7.493717D-03
1.558999D+02          -1.410102D-02
7.223091D+01          -1.691600D-02
3.272506D+01           4.218996D-03
1.566762D+01           6.833810D-02
7.503483D+00           1.098201D-01
3.312223D+00          -4.009005D-02
1.558471D+00          -2.174739D-01
6.839140D-01          -2.465135D-01
1.467570D-01           2.731435D-01
7.058300D-02           5.748321D-01
3.144900D-02           3.012713D-01
S   20   1.00
4.316265D+06          -4.009367D-07
6.463424D+05          -3.189255D-06
1.470897D+05          -1.623079D-05
4.166152D+04          -7.157920D-05
1.359077D+04          -2.463958D-04
4.905750D+03          -8.544907D-04
1.912746D+03          -2.307593D-03
7.926043D+02          -6.728292D-03
3.448065D+02          -1.366165D-02
1.558999D+02          -3.062240D-02
7.223091D+01          -2.631137D-02
3.272506D+01          -9.760183D-03
1.566762D+01           1.801906D-01
7.503483D+00           1.529634D-01
3.312223D+00           5.505413D-02
1.558471D+00          -9.551364D-01
6.839140D-01           2.586813D-01
1.467570D-01           1.834049D+00
7.058300D-02          -9.333240D-01
3.144900D-02          -6.981605D-01
S   1   1.00
3.144900D-02           1.000000D+00
P   16   1.00
1.774569D+04           4.100000D-05
4.200721D+03           3.690000D-04
1.364429D+03           2.129000D-03
5.220806D+02           9.369000D-03
2.214595D+02           3.309700D-02
1.009096D+02           9.443100D-02
4.840115D+01           2.080770D-01
2.398536D+01           3.323330D-01
1.218250D+01           3.329870D-01
6.242298D+00           1.568430D-01
3.110944D+00           2.154900D-02
1.509958D+00          -2.095000D-03
7.108450D-01          -1.739000D-03
2.731900D-01          -3.000000D-04
1.042330D-01           2.900000D-05
3.829100D-02          -1.100000D-05
P   16   1.00
1.774569D+04          -1.500000D-05
4.200721D+03          -1.300000D-04
1.364429D+03          -7.510000D-04
5.220806D+02          -3.329000D-03
2.214595D+02          -1.191200D-02
1.009096D+02          -3.493300D-02
4.840115D+01          -7.998900D-02
2.398536D+01          -1.346360D-01
1.218250D+01          -1.385980D-01
6.242298D+00           3.027800D-02
3.110944D+00           3.332160D-01
1.509958D+00           4.561530D-01
7.108450D-01           2.850510D-01
2.731900D-01           4.614400D-02
1.042330D-01          -3.249000D-03
3.829100D-02           1.357000D-03
P   16   1.00
1.774569D+04           5.000000D-06
4.200721D+03           4.200000D-05
1.364429D+03           2.410000D-04
5.220806D+02           1.085000D-03
2.214595D+02           3.831000D-03
1.009096D+02           1.142300D-02
4.840115D+01           2.579200D-02
2.398536D+01           4.481800D-02
1.218250D+01           4.459800D-02
6.242298D+00          -1.117700D-02
3.110944D+00          -1.381340D-01
1.509958D+00          -1.882850D-01
7.108450D-01          -1.073990D-01
2.731900D-01           4.448630D-01
1.042330D-01           6.402390D-01
3.829100D-02           6.445700D-02
P   16   1.00
1.774569D+04           3.000000D-06
4.200721D+03           2.900000D-05
1.364429D+03           1.650000D-04
5.220806D+02           7.340000D-04
2.214595D+02           2.626000D-03
1.009096D+02           7.725000D-03
4.840115D+01           1.773300D-02
2.398536D+01           3.005500D-02
1.218250D+01           3.109400D-02
6.242298D+00          -1.004800D-02
3.110944D+00          -8.830600D-02
1.509958D+00          -1.298240D-01
7.108450D-01          -7.693700D-02
2.731900D-01           2.126610D-01
1.042330D-01           5.730610D-01
3.829100D-02           3.696510D-01
P   1   1.00
3.829100D-02           1.000000D+00
D   8   1.00
1.133440D+02           3.530000D-03
3.364140D+01           2.578400D-02
1.233100D+01           9.911900D-02
4.994780D+00           2.390730D-01
2.072800D+00           3.571990D-01
8.307530D-01           3.621880D-01
3.091780D-01           2.364610D-01
1.001300D-01           6.011800D-02
D   8   1.00
1.133440D+02          -3.890000D-03
3.364140D+01          -2.844200D-02
1.233100D+01          -1.124290D-01
4.994780D+00          -2.742570D-01
2.072800D+00          -3.155460D-01
8.307530D-01           5.710900D-02
3.091780D-01           5.636040D-01
1.001300D-01           3.846370D-01
D   1   1.00
1.001300D-01           1.000000D+00
F   2   1.00
3.224300D+00           4.222490D-01
7.758000D-01           7.714680D-01
****
$end


--------------------------------------------------------------
 Adding empirical dispersion correction 
 ----------------------------------------------------------------
 Doing -D3(BJ) with
 s6  =   1.00000
 s8  =   2.23820
 a1  =   0.45290
 a2  =   4.65500
 -D3 energy without 3body term =     -0.1305979448 hartrees
 ----------------------------------------------------------------
             Standard Nuclear Orientation (Angstroms)
    I     Atom           X                Y                Z
 ----------------------------------------------------------------
    1      C      -2.7882818000     1.9175589000     1.5547403000
    2      C      -2.8343179000    -1.4324084000    -1.3806776000
    3      H      -3.4393038000    -2.3544092000    -1.3031691000
    4      N      -1.9326077000    -1.3753158000    -0.2433372000
    5      H      -0.9483991000    -1.1983984000    -0.4441571000
    6      C      -2.0050620000    -1.5355220000    -2.6949605000
    7      O      -2.6745178000    -1.6039800000    -3.7552653000
    8      C      -2.2724697000    -1.5914051000     1.0395353000
    9      O      -3.4521867000    -1.7384156000     1.4137300000
   10      N      -2.4951436000     2.9000891000     0.6849483000
   11      C      -3.4225843000     3.4040185000    -0.3431838000
   12      H      -2.7998431000     4.0488650000    -0.9750652000
   13      H      -4.1867995000     4.0397158000     0.1295453000
   14      C      -1.1209886000    -1.8402710000     2.0136167000
   15      H      -0.8619145000    -2.8960851000     1.8367795000
   16      H      -1.5255504000    -1.7661383000     3.0307023000
   17      C       0.2042206000    -1.0137081000     1.9314112000
   18      C       0.3079662000     0.0025873000     3.1109460000
   19      C       1.4240518000    -1.9647445000     2.1383291000
   20      H       1.2048368000    -2.6665288000     2.9574186000
   21      H       2.2962814000    -1.3628947000     2.4325127000
   22      C       1.7522120000    -2.7360658000     0.8700333000
   23      O       0.9435864000    -3.5042217000     0.3205785000
   24      N       2.9874158000    -2.5062038000     0.3882090000
   25      H       3.6466327000    -1.9024448000     0.8780885000
   26      C       5.0651689000    -2.7385355000    -0.8618783000
   27      O       5.7145377000    -3.2867185000    -1.7859994000
   28      C       2.5708821000     2.3209753000    -0.4140392000
   29      N       1.8587706000     1.8735067000    -1.4386796000
   30      C       2.3310136000     1.5252730000    -2.7770685000
   31      H       3.3613362000     1.8878776000    -2.8777277000
   32      H       1.7003577000     2.0744205000    -3.4940210000
   33      C       4.0462165000     2.5862735000    -0.5277668000
   34      H       4.3500972000     3.2015214000     0.3286105000
   35      H       4.3136715000     3.1051844000    -1.4579861000
   36      C       2.2575881000     0.0163107000    -3.0318798000
   37      H       1.2074827000    -0.3113600000    -2.9956960000
   38      H       2.6201475000    -0.1650624000    -4.0589814000
   39      C       3.0838462000    -0.7707325000    -2.0168159000
   40      H       4.1537590000    -0.5245730000    -2.1382547000
   41      H       2.8015519000    -0.4336462000    -1.0069965000
   42      C       2.8857679000    -2.2857954000    -2.0756258000
   43      H       1.8089092000    -2.5171311000    -2.0908372000
   44      H       3.3319491000    -2.7055053000    -2.9922495000
   45      C       3.5300246000    -2.9969122000    -0.8664060000
   46      H       3.3488283000    -4.0803902000    -0.9532256000
   47      C      -4.0857045000     2.2769942000    -1.1554017000
   48      H      -4.5514195000     2.7301559000    -2.0468571000
   49      H      -4.9191006000     1.8708063000    -0.5597167000
   50      C      -4.1929849000     1.7254104000     2.0505830000
   51      H      -4.1722892000     1.7656233000     3.1508159000
   52      H      -4.8998471000     2.4750742000     1.6773991000
   53      C      -3.1452023000     1.1166036000    -1.5399314000
   54      H      -2.2757497000     1.1037005000    -0.8687646000
   55      H      -2.7381762000     1.2675563000    -2.5539072000
   56      C      -3.8232198000    -0.2535005000    -1.4398101000
   57      H      -4.4338072000    -0.2891814000    -0.5244935000
   58      H      -4.4933011000    -0.4238380000    -2.2971314000
   59      O      -0.7445189000    -1.5324698000    -2.5852629000
   60      O       5.5068617000    -1.9716408000     0.0419151000
   61      O       0.3620864000    -0.3401112000     0.7155127000
   62      Fe      0.1147535000     1.5587985000     0.8008820000
   63      O       0.6611197000     1.2015178000     2.7645425000
   64      O      -1.8560562000     1.1873077000     1.9716576000
   65      O      -1.1737404000     2.9903432000     0.3292074000
   66      O       1.9729365000     2.4894485000     0.7085375000
   67      O       0.1284832000    -0.3743970000     4.2765696000
   68      O       0.5443078000     1.6295404000    -1.2115159000
   69      H      -4.5261182000     0.7158153000     1.7652217000
   70      H       4.6038943000     1.6356091000    -0.4907083000
 ----------------------------------------------------------------
 Nuclear Repulsion Energy =        6282.79657125 hartrees
 There are      164 alpha and      159 beta electrons
 Requested basis set is non-standard
 There are 339 shells and 739 basis functions

 Total QAlloc Memory Limit  64000 MB
 Mega-Array Size       188 MB
 MEM_STATIC part       192 MB

 -----------------------------------------------------------------------
                STARTING GEOMETRY OPTIMIZER USING LIBOPT3
                by Peter F. McLaughlin, Yu Zhang, Evgeny Epifanovsky
 -----------------------------------------------------------------------

              Initial Energy and Gradient Calculation
   -- Checking Topology for Ill-Behaving Coordinates --

 -------------------------------------------
   Coordinate       |  Removed | Additions 
 -------------------------------------------
	Bonds                     0          0
	Angles                    0          0
	Torsions                  0          0
	Co-Linear Type5s          0          0
	Co-Linear Type6s          0          0
 -------------------------------------------
     Done Checking Topology
 Adding empirical dispersion correction 
 ----------------------------------------------------------------
 Doing -D3(BJ) with
 s6  =   1.00000
 s8  =   2.23820
 a1  =   0.45290
 a2  =   4.65500
 -D3 energy without 3body term =     -0.1305979448 hartrees
 ----------------------------------------------------------------
             Standard Nuclear Orientation (Angstroms)
    I     Atom           X                Y                Z
 ----------------------------------------------------------------
    1      C      -2.7882818000     1.9175589000     1.5547403000
    2      C      -2.8343179000    -1.4324084000    -1.3806776000
    3      H      -3.4393038000    -2.3544092000    -1.3031691000
    4      N      -1.9326077000    -1.3753158000    -0.2433372000
    5      H      -0.9483991000    -1.1983984000    -0.4441571000
    6      C      -2.0050620000    -1.5355220000    -2.6949605000
    7      O      -2.6745178000    -1.6039800000    -3.7552653000
    8      C      -2.2724697000    -1.5914051000     1.0395353000
    9      O      -3.4521867000    -1.7384156000     1.4137300000
   10      N      -2.4951436000     2.9000891000     0.6849483000
   11      C      -3.4225843000     3.4040185000    -0.3431838000
   12      H      -2.7998431000     4.0488650000    -0.9750652000
   13      H      -4.1867995000     4.0397158000     0.1295453000
   14      C      -1.1209886000    -1.8402710000     2.0136167000
   15      H      -0.8619145000    -2.8960851000     1.8367795000
   16      H      -1.5255504000    -1.7661383000     3.0307023000
   17      C       0.2042206000    -1.0137081000     1.9314112000
   18      C       0.3079662000     0.0025873000     3.1109460000
   19      C       1.4240518000    -1.9647445000     2.1383291000
   20      H       1.2048368000    -2.6665288000     2.9574186000
   21      H       2.2962814000    -1.3628947000     2.4325127000
   22      C       1.7522120000    -2.7360658000     0.8700333000
   23      O       0.9435864000    -3.5042217000     0.3205785000
   24      N       2.9874158000    -2.5062038000     0.3882090000
   25      H       3.6466327000    -1.9024448000     0.8780885000
   26      C       5.0651689000    -2.7385355000    -0.8618783000
   27      O       5.7145377000    -3.2867185000    -1.7859994000
   28      C       2.5708821000     2.3209753000    -0.4140392000
   29      N       1.8587706000     1.8735067000    -1.4386796000
   30      C       2.3310136000     1.5252730000    -2.7770685000
   31      H       3.3613362000     1.8878776000    -2.8777277000
   32      H       1.7003577000     2.0744205000    -3.4940210000
   33      C       4.0462165000     2.5862735000    -0.5277668000
   34      H       4.3500972000     3.2015214000     0.3286105000
   35      H       4.3136715000     3.1051844000    -1.4579861000
   36      C       2.2575881000     0.0163107000    -3.0318798000
   37      H       1.2074827000    -0.3113600000    -2.9956960000
   38      H       2.6201475000    -0.1650624000    -4.0589814000
   39      C       3.0838462000    -0.7707325000    -2.0168159000
   40      H       4.1537590000    -0.5245730000    -2.1382547000
   41      H       2.8015519000    -0.4336462000    -1.0069965000
   42      C       2.8857679000    -2.2857954000    -2.0756258000
   43      H       1.8089092000    -2.5171311000    -2.0908372000
   44      H       3.3319491000    -2.7055053000    -2.9922495000
   45      C       3.5300246000    -2.9969122000    -0.8664060000
   46      H       3.3488283000    -4.0803902000    -0.9532256000
   47      C      -4.0857045000     2.2769942000    -1.1554017000
   48      H      -4.5514195000     2.7301559000    -2.0468571000
   49      H      -4.9191006000     1.8708063000    -0.5597167000
   50      C      -4.1929849000     1.7254104000     2.0505830000
   51      H      -4.1722892000     1.7656233000     3.1508159000
   52      H      -4.8998471000     2.4750742000     1.6773991000
   53      C      -3.1452023000     1.1166036000    -1.5399314000
   54      H      -2.2757497000     1.1037005000    -0.8687646000
   55      H      -2.7381762000     1.2675563000    -2.5539072000
   56      C      -3.8232198000    -0.2535005000    -1.4398101000
   57      H      -4.4338072000    -0.2891814000    -0.5244935000
   58      H      -4.4933011000    -0.4238380000    -2.2971314000
   59      O      -0.7445189000    -1.5324698000    -2.5852629000
   60      O       5.5068617000    -1.9716408000     0.0419151000
   61      O       0.3620864000    -0.3401112000     0.7155127000
   62      Fe      0.1147535000     1.5587985000     0.8008820000
   63      O       0.6611197000     1.2015178000     2.7645425000
   64      O      -1.8560562000     1.1873077000     1.9716576000
   65      O      -1.1737404000     2.9903432000     0.3292074000
   66      O       1.9729365000     2.4894485000     0.7085375000
   67      O       0.1284832000    -0.3743970000     4.2765696000
   68      O       0.5443078000     1.6295404000    -1.2115159000
   69      H      -4.5261182000     0.7158153000     1.7652217000
   70      H       4.6038943000     1.6356091000    -0.4907083000
 ----------------------------------------------------------------
 Nuclear Repulsion Energy =        6282.79657125 hartrees
 There are      164 alpha and      159 beta electrons
 Using C-PCM dielectric factor f(eps) = (eps-1)/eps = 0.987243
No default van der Waals radius is available for Z = 26
	Found R = 2.4400 A in the $van_der_waals section
 Discretize the solute cavity surface with Lebedev spheres
	Using 110 Lebedev grid points for each H atom
	Using 194 Lebedev grid points for other atoms
	Atomic van der Waals radii (Bondi set) will be scaled by 1.20
 Using smooth SwiG surface discretization
 Remove points where switching function is < 1.0e-08
 Keep 4046 surface tesserae and discard 7014 interior tesserae
 Molecular Surface Area = 510.111 Angst**2

 Requested basis set is non-standard
 There are 339 shells and 739 basis functions
 A cutoff of  1.0D-12 yielded  48879 shell pairs
 There are    213337 function pairs (    236754 Cartesian)
 Smallest overlap matrix eigenvalue = 2.43E-04

 Scale SEOQF with 1.000000e-02/1.000000e-01/1.000000e-01

 Standard Electronic Orientation quadrupole field applied
 Nucleus-field energy     =    -0.0000000132 hartrees
 ================ Generating on-the-fly SAD Guess ================
 Attempting to make child job directory: /var/scratch/qchem3234298//Frg1/
 Attempting to make child job directory: /var/scratch/qchem3234298//Frg2/
 Attempting to make child job directory: /var/scratch/qchem3234298//Frg3/
 Attempting to make child job directory: /var/scratch/qchem3234298//Frg4/
 Attempting to make child job directory: /var/scratch/qchem3234298//Frg5/
 Creating input file /var/scratch/qchem3234298/Frg1.input
 using default PutDataFrgm: nothing
 calling putenv with: QCSCRATCH=/var/scratch/qchem3234298/ 
 calling putenv with: BRIANQC_ENABLE=0 
 Spawning Job For Fragment 0
 Done Job For Fragment 0
 calling putenv with: QCSCRATCH=/var/scratch 
 calling putenv with: QCTHREADS=12 
 Creating input file /var/scratch/qchem3234298/Frg2.input
 using default PutDataFrgm: nothing
 calling putenv with: QCSCRATCH=/var/scratch/qchem3234298/ 
 calling putenv with: BRIANQC_ENABLE=0 
 Spawning Job For Fragment 1
 Done Job For Fragment 1
 calling putenv with: QCSCRATCH=/var/scratch 
 calling putenv with: QCTHREADS=12 
 Creating input file /var/scratch/qchem3234298/Frg3.input
 using default PutDataFrgm: nothing
 calling putenv with: QCSCRATCH=/var/scratch/qchem3234298/ 
 calling putenv with: BRIANQC_ENABLE=0 
 Spawning Job For Fragment 2
 Done Job For Fragment 2
 calling putenv with: QCSCRATCH=/var/scratch 
 calling putenv with: QCTHREADS=12 
 Creating input file /var/scratch/qchem3234298/Frg4.input
 using default PutDataFrgm: nothing
 calling putenv with: QCSCRATCH=/var/scratch/qchem3234298/ 
 calling putenv with: BRIANQC_ENABLE=0 
 Spawning Job For Fragment 3
 Done Job For Fragment 3
 calling putenv with: QCSCRATCH=/var/scratch 
 calling putenv with: QCTHREADS=12 
 Creating input file /var/scratch/qchem3234298/Frg5.input
 using default PutDataFrgm: nothing
 calling putenv with: QCSCRATCH=/var/scratch/qchem3234298/ 
 calling putenv with: BRIANQC_ENABLE=0 
 Spawning Job For Fragment 4
 Done Job For Fragment 4
 calling putenv with: QCSCRATCH=/var/scratch 
 calling putenv with: QCTHREADS=12 
 Time for running child jobs:  CPU 0.02 s  wall 372.31 s
 ============= Method Specific SAD Guess Constructed =============
 Guess from on-the-fly superposition of atomic densities
 Warning: Energy on first SCF cycle will be non-variational

 -----------------------------------------------------------------------
  General SCF calculation program by
  Eric Jon Sundstrom, Paul Horn, Yuezhi Mao, Dmitri Zuev, Alec White,
  David Stuck, Shaama M.S., Shane Yost, Joonho Lee, David Small,
  Daniel Levine, Susi Lehtola, Hugh Burton, Evgeny Epifanovsky,
  Bang C. Huynh
 -----------------------------------------------------------------------
 Exchange:     0.1000 Hartree-Fock + 0.9000 TPSS
 Correlation:  1.0000 TPSS
 Using SG-2 standard quadrature grid
 Dispersion:   Grimme D3
 using 12 threads for integral computing
 -------------------------------------------------------
 OpenMP Integral computing Module                
 Release: version 1.0, May 2013, Q-Chem Inc. Pittsburgh 
 -------------------------------------------------------
 C-PCM solvent model [f = (eps-1)/eps], solve by matrix inversion
 A unrestricted SCF calculation will be
 performed using DIIS
 SCF converges when DIIS error is below 1.0e-08
 ---------------------------------------
  Cycle       Energy         DIIS error
 ---------------------------------------
    1   -3330.9026946595      1.57e-02  
    2   -3317.0151678827      2.03e-03  
    3   -3315.1378700040      3.65e-03  
    4   -3317.5650383260      1.52e-03  
    5   -3317.8535989765      8.87e-04  
    6   -3317.9916335402      2.58e-04  
    7   -3318.0026935103      1.47e-04  
    8   -3318.0072134371      5.40e-05  
    9   -3318.0078735959      2.63e-05  
   10   -3318.0080257678      1.47e-05  
   11   -3318.0080801387      6.87e-06  
   12   -3318.0080947799      2.54e-06  
   13   -3318.0080970430      1.60e-06  
   14   -3318.0080977992      7.65e-07  
   15   -3318.0080979536      4.08e-07  
   16   -3318.0080980092      1.77e-07  
   17   -3318.0080980199      1.16e-07  
   18   -3318.0080980236      5.70e-08  
   19   -3318.0080980238      2.78e-08  
   20   -3318.0080980244      1.46e-08  
   21   -3318.0080980242      5.51e-09  Convergence criterion met
 ---------------------------------------
 SCF time:   CPU 51740.47s  wall 28320.00s 
<S^2> =          8.758367564

************** Final PCM Free Energy Summary **************
 G_electrostatic  =      -0.54168512 hartree =    -339.91254506 kcal/mol
 G_cavitation     =       0.00000000 hartree =       0.00000000 kcal/mol
 G_dispersion     =       0.00000000 hartree =       0.00000000 kcal/mol
 G_repulsion      =       0.00000000 hartree =       0.00000000 kcal/mol
 --------------------------------------------------
 Non-electrostatic Free Energy =       0.00000000 hartree =       0.00000000 kcal/mol
 Total                         =      -0.54168512 hartree =    -339.91254506 kcal/mol
 --------------------------------------------------
 SCF Energy (H0 + V/2)                       =   -3318.00809802 
 Solute Internal Energy (H0)                 =   -3317.46641290 
 Total Free Energy (H0 + V/2 + non-elec)     =   -3318.00809802 hartree
                                             = -2082081.50636491 kcal/mol
***********************************************************

 SCF   energy in the final basis set =    -3318.0080980242
 Total energy in the final basis set =    -3318.0080980242
 
 --------------------------------------------------------------
 
                    Orbital Energies (a.u.)
 --------------------------------------------------------------
 
 Alpha MOs
 -- Occupied --
******** -29.9592 -25.7900 -25.7892 -25.7851 -19.0505 -19.0503 -19.0434
-19.0402 -19.0215 -19.0121 -19.0102 -19.0036 -19.0023 -18.9823 -18.9815
-18.9753 -18.9751 -14.3335 -14.3238 -14.2554 -14.2403 -10.2105 -10.2080
-10.1980 -10.1946 -10.1903 -10.1766 -10.1756 -10.1577 -10.1553 -10.1546
-10.1315 -10.1296 -10.1280 -10.1240 -10.1160 -10.1117 -10.1072 -10.1041
-10.1035 -10.1026 -10.1014 -10.1012  -3.5399  -2.3157  -2.3143  -2.3068
 -1.0508  -1.0449  -1.0024  -0.9845  -0.9779  -0.9768  -0.9750  -0.9702
 -0.9680  -0.9337  -0.9116  -0.8879  -0.8842  -0.8708  -0.8607  -0.8248
 -0.8207  -0.7639  -0.7589  -0.7385  -0.7256  -0.7181  -0.6997  -0.6959
 -0.6808  -0.6600  -0.6485  -0.6067  -0.5980  -0.5782  -0.5609  -0.5593
 -0.5243  -0.5206  -0.5150  -0.5087  -0.4922  -0.4889  -0.4855  -0.4802
 -0.4729  -0.4683  -0.4643  -0.4525  -0.4497  -0.4446  -0.4377  -0.4362
 -0.4316  -0.4284  -0.4164  -0.4142  -0.4099  -0.4095  -0.4058  -0.4044
 -0.4024  -0.3929  -0.3915  -0.3872  -0.3844  -0.3825  -0.3801  -0.3774
 -0.3756  -0.3733  -0.3687  -0.3653  -0.3616  -0.3599  -0.3560  -0.3553
 -0.3486  -0.3466  -0.3449  -0.3423  -0.3397  -0.3394  -0.3347  -0.3317
 -0.3300  -0.3283  -0.3259  -0.3232  -0.3213  -0.3159  -0.3078  -0.3040
 -0.3007  -0.2993  -0.2966  -0.2930  -0.2918  -0.2859  -0.2842  -0.2729
 -0.2648  -0.2512  -0.2474  -0.2312  -0.2211  -0.2186  -0.2177  -0.2140
 -0.2097  -0.2050  -0.2040  -0.2034  -0.1985  -0.1929  -0.1912  -0.1845
 -0.1828  -0.1819  -0.1813  -0.1735
 -- Virtual --
  0.0065   0.0116   0.0219   0.0348   0.0380   0.0541   0.0624   0.0642
  0.0701   0.0719   0.0773   0.0855   0.0882   0.0947   0.1051   0.1061
  0.1109   0.1149   0.1176   0.1214   0.1239   0.1292   0.1318   0.1389
  0.1448   0.1462   0.1489   0.1550   0.1572   0.1617   0.1626   0.1648
  0.1689   0.1726   0.1747   0.1770   0.1800   0.1813   0.1870   0.1899
  0.1959   0.2000   0.2038   0.2121   0.2144   0.2169   0.2206   0.2222
  0.2241   0.2315   0.2373   0.2427   0.2481   0.2516   0.2541   0.2579
  0.2657   0.2701   0.2738   0.2764   0.2828   0.2907   0.2914   0.2949
  0.3106   0.3175   0.3198   0.3238   0.3261   0.3403   0.3447   0.3524
  0.3639   0.3695   0.3771   0.3795   0.3834   0.3980   0.4004   0.4036
  0.4074   0.4163   0.4222   0.4253   0.4357   0.4411   0.4432   0.4468
  0.4587   0.4610   0.4632   0.4663   0.4767   0.4798   0.4830   0.4881
  0.4941   0.4969   0.5061   0.5098   0.5141   0.5211   0.5256   0.5310
  0.5313   0.5323   0.5368   0.5434   0.5471   0.5565   0.5598   0.5622
  0.5624   0.5666   0.5713   0.5755   0.5760   0.5834   0.5848   0.5876
  0.5992   0.6024   0.6059   0.6076   0.6097   0.6127   0.6183   0.6255
  0.6282   0.6302   0.6335   0.6346   0.6403   0.6440   0.6444   0.6487
  0.6533   0.6560   0.6600   0.6645   0.6659   0.6696   0.6713   0.6770
  0.6773   0.6794   0.6849   0.6866   0.6884   0.6916   0.6948   0.6964
  0.6994   0.7008   0.7022   0.7098   0.7134   0.7172   0.7196   0.7218
  0.7247   0.7320   0.7353   0.7367   0.7406   0.7446   0.7502   0.7527
  0.7546   0.7680   0.7703   0.7774   0.7831   0.7875   0.7919   0.7989
  0.8081   0.8164   0.8178   0.8232   0.8276   0.8353   0.8376   0.8493
  0.8507   0.8533   0.8664   0.8693   0.8755   0.8813   0.8858   0.8921
  0.9016   0.9139   0.9228   0.9271   0.9379   0.9398   0.9551   0.9559
  0.9756   0.9897   0.9956   1.0016   1.0045   1.0210   1.0230   1.0296
  1.0384   1.0395   1.0455   1.0510   1.0550   1.0610   1.0688   1.0760
  1.0763   1.0868   1.0906   1.0989   1.1081   1.1088   1.1142   1.1176
  1.1215   1.1266   1.1337   1.1420   1.1474   1.1499   1.1517   1.1596
  1.1634   1.1664   1.1688   1.1775   1.1806   1.1869   1.1963   1.1995
  1.2058   1.2084   1.2133   1.2203   1.2223   1.2281   1.2333   1.2447
  1.2478   1.2528   1.2570   1.2653   1.2680   1.2740   1.2797   1.2832
  1.2922   1.2957   1.3013   1.3043   1.3155   1.3208   1.3264   1.3311
  1.3399   1.3437   1.3487   1.3503   1.3642   1.3671   1.3749   1.3785
  1.3801   1.3909   1.4007   1.4046   1.4110   1.4182   1.4211   1.4295
  1.4315   1.4361   1.4378   1.4462   1.4507   1.4547   1.4620   1.4652
  1.4755   1.4785   1.4959   1.4993   1.5015   1.5156   1.5202   1.5245
  1.5312   1.5348   1.5419   1.5507   1.5570   1.5595   1.5703   1.5754
  1.5812   1.5861   1.5943   1.5977   1.6052   1.6124   1.6149   1.6206
  1.6290   1.6332   1.6368   1.6382   1.6440   1.6475   1.6485   1.6554
  1.6620   1.6653   1.6667   1.6703   1.6770   1.6788   1.6854   1.6856
  1.6873   1.6941   1.7001   1.7043   1.7126   1.7156   1.7215   1.7254
  1.7293   1.7351   1.7430   1.7454   1.7466   1.7496   1.7522   1.7570
  1.7599   1.7640   1.7683   1.7718   1.7748   1.7804   1.7839   1.7862
  1.7920   1.7949   1.7982   1.8019   1.8101   1.8116   1.8180   1.8210
  1.8217   1.8248   1.8320   1.8381   1.8410   1.8433   1.8450   1.8481
  1.8590   1.8594   1.8618   1.8646   1.8678   1.8764   1.8821   1.8894
  1.8914   1.8961   1.8986   1.9066   1.9125   1.9159   1.9173   1.9247
  1.9268   1.9378   1.9494   1.9592   1.9644   1.9739   1.9800   1.9853
  1.9890   1.9911   2.0011   2.0082   2.0141   2.0190   2.0329   2.0359
  2.0452   2.0504   2.0543   2.0641   2.0695   2.0708   2.0819   2.0860
  2.0930   2.0983   2.1020   2.1089   2.1126   2.1247   2.1293   2.1393
  2.1437   2.1487   2.1550   2.1627   2.1656   2.1779   2.1821   2.1903
  2.1930   2.1974   2.2091   2.2119   2.2164   2.2218   2.2316   2.2386
  2.2420   2.2513   2.2589   2.2699   2.2738   2.2742   2.2831   2.2866
  2.2915   2.3038   2.3056   2.3165   2.3246   2.3257   2.3341   2.3401
  2.3517   2.3523   2.3551   2.3669   2.3712   2.3771   2.3802   2.3896
  2.4020   2.4087   2.4166   2.4248   2.4336   2.4478   2.4598   2.4609
  2.4721   2.4835   2.4888   2.4976   2.5002   2.5053   2.5124   2.5189
  2.5249   2.5394   2.5456   2.5491   2.5563   2.5616   2.5704   2.5803
  2.5899   2.5931   2.5986   2.6086   2.6245   2.6278   2.6325   2.6403
  2.6441   2.6648   2.6670   2.6758   2.6785   2.6860   2.6948   2.7001
  2.7046   2.7154   2.7188   2.7211   2.7257   2.7270   2.7309   2.7355
  2.7406   2.7437   2.7543   2.7614   2.7644   2.7658   2.7729   2.7770
  2.7820   2.7923   2.7979   2.7984   2.8100   2.8280   2.8365   2.8402
  2.8510   2.8604   2.8871   2.9027   2.9081   2.9152   2.9370   2.9418
  2.9587   2.9807   2.9914   3.0092   3.0148   3.0300   3.0352   3.0616
  3.0707   3.0892   3.1100   3.1126   3.1268   3.1326   3.1420   3.1544
  3.1818   3.2135   3.2164   3.2277   3.2457   3.2556   3.2743   3.2945
  3.3553   3.4099   3.4111   3.4151   3.4307   3.4344   3.4417   3.4462
  3.4541   3.4716   3.4911   3.4962   3.5100   3.5248   3.5342   3.5520
  3.5597   3.5802   3.5993   3.6130   3.6143   3.7265   3.7653
 
 Beta MOs
 -- Occupied --
******** -29.8791 -25.7223 -25.7211 -25.7190 -19.0469 -19.0452 -19.0384
-19.0377 -19.0182 -19.0102 -19.0052 -19.0030 -19.0023 -18.9823 -18.9815
-18.9753 -18.9751 -14.3330 -14.3234 -14.2554 -14.2402 -10.2107 -10.2080
-10.1980 -10.1945 -10.1903 -10.1766 -10.1756 -10.1577 -10.1552 -10.1545
-10.1315 -10.1296 -10.1279 -10.1238 -10.1160 -10.1115 -10.1072 -10.1041
-10.1035 -10.1025 -10.1014 -10.1012  -3.3395  -2.1082  -2.1051  -2.1024
 -1.0460  -1.0404  -0.9990  -0.9844  -0.9760  -0.9717  -0.9704  -0.9702
 -0.9679  -0.9241  -0.9055  -0.8879  -0.8841  -0.8708  -0.8604  -0.8203
 -0.8162  -0.7634  -0.7584  -0.7367  -0.7250  -0.7172  -0.6986  -0.6948
 -0.6802  -0.6596  -0.6482  -0.6061  -0.5976  -0.5768  -0.5605  -0.5588
 -0.5236  -0.5172  -0.5145  -0.5041  -0.4896  -0.4855  -0.4825  -0.4755
 -0.4687  -0.4656  -0.4599  -0.4486  -0.4467  -0.4410  -0.4363  -0.4339
 -0.4302  -0.4255  -0.4150  -0.4128  -0.4082  -0.4065  -0.4049  -0.4025
 -0.3991  -0.3886  -0.3865  -0.3831  -0.3810  -0.3791  -0.3771  -0.3755
 -0.3697  -0.3680  -0.3670  -0.3630  -0.3586  -0.3539  -0.3515  -0.3488
 -0.3461  -0.3397  -0.3358  -0.3333  -0.3295  -0.3275  -0.3251  -0.3235
 -0.3179  -0.3157  -0.3045  -0.3011  -0.2991  -0.2979  -0.2928  -0.2914
 -0.2864  -0.2846  -0.2759  -0.2693  -0.2605  -0.2567  -0.2522  -0.2384
 -0.2308  -0.2210  -0.2192  -0.2145  -0.2098  -0.2043  -0.2040  -0.1993
 -0.1950  -0.1924  -0.1906  -0.1859  -0.1826  -0.1818  -0.1762
 -- Virtual --
 -0.0821  -0.0754  -0.0707  -0.0508  -0.0320   0.0105   0.0155   0.0230
  0.0359   0.0402   0.0558   0.0626   0.0647   0.0704   0.0725   0.0786
  0.0882   0.0891   0.0960   0.1054   0.1085   0.1124   0.1156   0.1181
  0.1218   0.1245   0.1299   0.1327   0.1409   0.1459   0.1483   0.1496
  0.1555   0.1581   0.1628   0.1634   0.1674   0.1695   0.1735   0.1764
  0.1782   0.1811   0.1840   0.1878   0.1907   0.1968   0.2017   0.2106
  0.2147   0.2175   0.2184   0.2230   0.2246   0.2268   0.2324   0.2416
  0.2456   0.2488   0.2531   0.2564   0.2611   0.2666   0.2712   0.2765
  0.2772   0.2841   0.2919   0.2925   0.2980   0.3161   0.3214   0.3245
  0.3286   0.3361   0.3457   0.3483   0.3585   0.3677   0.3723   0.3793
  0.3817   0.3883   0.3988   0.4047   0.4071   0.4111   0.4186   0.4264
  0.4280   0.4376   0.4425   0.4438   0.4515   0.4599   0.4639   0.4652
  0.4673   0.4793   0.4815   0.4858   0.4892   0.4958   0.4979   0.5079
  0.5119   0.5157   0.5221   0.5281   0.5318   0.5327   0.5338   0.5380
  0.5441   0.5493   0.5572   0.5606   0.5629   0.5635   0.5677   0.5720
  0.5760   0.5765   0.5845   0.5885   0.5892   0.6007   0.6033   0.6073
  0.6080   0.6101   0.6143   0.6190   0.6260   0.6293   0.6310   0.6342
  0.6355   0.6410   0.6444   0.6455   0.6494   0.6540   0.6568   0.6610
  0.6653   0.6664   0.6701   0.6723   0.6776   0.6784   0.6808   0.6853
  0.6886   0.6896   0.6922   0.6959   0.6969   0.7003   0.7019   0.7044
  0.7112   0.7150   0.7182   0.7208   0.7244   0.7273   0.7334   0.7363
  0.7392   0.7416   0.7461   0.7510   0.7546   0.7565   0.7704   0.7725
  0.7795   0.7852   0.7936   0.7960   0.8054   0.8108   0.8183   0.8204
  0.8262   0.8314   0.8366   0.8393   0.8512   0.8551   0.8590   0.8710
  0.8752   0.8766   0.8834   0.8908   0.8994   0.9066   0.9176   0.9276
  0.9297   0.9405   0.9441   0.9578   0.9614   0.9796   0.9950   1.0008
  1.0042   1.0061   1.0251   1.0271   1.0314   1.0414   1.0435   1.0471
  1.0531   1.0597   1.0640   1.0706   1.0778   1.0787   1.0884   1.0924
  1.1008   1.1094   1.1126   1.1153   1.1189   1.1249   1.1283   1.1362
  1.1430   1.1500   1.1533   1.1551   1.1616   1.1652   1.1701   1.1707
  1.1796   1.1851   1.1885   1.1985   1.2026   1.2070   1.2103   1.2185
  1.2238   1.2241   1.2315   1.2375   1.2469   1.2500   1.2545   1.2597
  1.2668   1.2711   1.2771   1.2829   1.2895   1.2974   1.2985   1.3060
  1.3090   1.3189   1.3245   1.3300   1.3370   1.3420   1.3497   1.3525
  1.3556   1.3661   1.3744   1.3783   1.3832   1.3857   1.3961   1.4083
  1.4148   1.4169   1.4255   1.4269   1.4324   1.4349   1.4395   1.4459
  1.4493   1.4571   1.4584   1.4688   1.4757   1.4810   1.4902   1.4995
  1.5036   1.5065   1.5178   1.5252   1.5310   1.5374   1.5421   1.5454
  1.5593   1.5671   1.5683   1.5764   1.5799   1.5872   1.5923   1.5968
  1.6035   1.6091   1.6143   1.6164   1.6225   1.6315   1.6375   1.6415
  1.6451   1.6505   1.6552   1.6560   1.6625   1.6655   1.6683   1.6723
  1.6741   1.6796   1.6831   1.6864   1.6896   1.6924   1.6959   1.7028
  1.7060   1.7165   1.7180   1.7274   1.7278   1.7302   1.7364   1.7454
  1.7482   1.7486   1.7530   1.7589   1.7599   1.7634   1.7668   1.7701
  1.7748   1.7763   1.7838   1.7859   1.7880   1.7946   1.7978   1.8025
  1.8034   1.8128   1.8140   1.8209   1.8228   1.8250   1.8277   1.8337
  1.8409   1.8443   1.8459   1.8478   1.8517   1.8619   1.8633   1.8638
  1.8679   1.8703   1.8785   1.8841   1.8920   1.8946   1.8991   1.9027
  1.9095   1.9152   1.9183   1.9214   1.9270   1.9299   1.9425   1.9526
  1.9617   1.9662   1.9780   1.9834   1.9915   1.9922   1.9947   2.0062
  2.0122   2.0181   2.0233   2.0372   2.0437   2.0471   2.0536   2.0560
  2.0689   2.0746   2.0775   2.0836   2.0886   2.0949   2.1045   2.1055
  2.1137   2.1149   2.1260   2.1328   2.1405   2.1461   2.1506   2.1570
  2.1653   2.1669   2.1799   2.1848   2.1930   2.1955   2.1996   2.2111
  2.2159   2.2208   2.2240   2.2352   2.2414   2.2449   2.2544   2.2627
  2.2713   2.2750   2.2786   2.2845   2.2899   2.2953   2.3063   2.3126
  2.3172   2.3264   2.3324   2.3356   2.3419   2.3531   2.3553   2.3575
  2.3677   2.3737   2.3825   2.3826   2.3914   2.4037   2.4114   2.4201
  2.4288   2.4354   2.4547   2.4618   2.4644   2.4733   2.4865   2.4906
  2.4987   2.5041   2.5083   2.5132   2.5220   2.5271   2.5419   2.5463
  2.5523   2.5605   2.5641   2.5719   2.5853   2.5914   2.5962   2.6029
  2.6110   2.6280   2.6298   2.6367   2.6435   2.6476   2.6749   2.6769
  2.6796   2.6819   2.6876   2.6980   2.7078   2.7105   2.7204   2.7242
  2.7252   2.7273   2.7342   2.7351   2.7389   2.7468   2.7557   2.7640
  2.7698   2.7728   2.7748   2.7785   2.7818   2.7873   2.7967   2.8016
  2.8046   2.8162   2.8335   2.8453   2.8528   2.8627   2.8860   2.9062
  2.9133   2.9161   2.9408   2.9467   2.9528   2.9700   2.9907   3.0073
  3.0096   3.0159   3.0505   3.0625   3.0917   3.0959   3.1143   3.1261
  3.1313   3.1434   3.1489   3.1690   3.2124   3.2136   3.2275   3.2371
  3.2456   3.2552   3.2604   3.3099   3.3800   3.4106   3.4177   3.4212
  3.4310   3.4435   3.4470   3.4526   3.4598   3.4728   3.4890   3.4968
  3.5253   3.5341   3.5351   3.5513   3.5584   3.5801   3.5936   3.6117
  3.6171   3.7017   3.7344   3.7760
 --------------------------------------------------------------
 
          Ground-State Mulliken Net Atomic Charges

     Atom                 Charge (a.u.)    Spin (a.u.)
  --------------------------------------------------------
      1 C                     0.133601       0.002121
      2 C                    -0.039563       0.000051
      3 H                     0.006268      -0.000004
      4 N                    -0.126546       0.001424
      5 H                     0.120433       0.001164
      6 C                     0.136128       0.000063
      7 O                    -0.463040       0.000057
      8 C                     0.140634      -0.000328
      9 O                    -0.412210       0.000628
     10 N                    -0.078957       0.015823
     11 C                     0.108688       0.001402
     12 H                     0.056988       0.000192
     13 H                     0.057829       0.000605
     14 C                     0.112041       0.008015
     15 H                     0.031700      -0.000160
     16 H                    -0.003656       0.000488
     17 C                    -0.074194       0.004498
     18 C                     0.260549       0.006303
     19 C                     0.059564       0.007384
     20 H                     0.036521       0.002119
     21 H                     0.025742      -0.000494
     22 C                     0.179103       0.000607
     23 O                    -0.393834       0.000257
     24 N                    -0.124747      -0.000181
     25 H                     0.093994      -0.000063
     26 C                     0.134617      -0.000004
     27 O                    -0.466144       0.000005
     28 C                     0.155973      -0.001473
     29 N                    -0.045384       0.017098
     30 C                     0.106615       0.001799
     31 H                     0.054400       0.001947
     32 H                     0.046222       0.000985
     33 C                    -0.017795       0.004269
     34 H                     0.063591       0.000301
     35 H                     0.077508       0.000224
     36 C                    -0.051690       0.001167
     37 H                     0.033383       0.000315
     38 H                     0.025321      -0.000175
     39 C                    -0.108896      -0.000003
     40 H                     0.024851      -0.000006
     41 H                     0.047852      -0.000068
     42 C                     0.020014      -0.000011
     43 H                     0.007481      -0.000031
     44 H                     0.007967       0.000022
     45 C                    -0.034453      -0.000003
     46 H                     0.000251      -0.000002
     47 C                    -0.059575       0.001092
     48 H                     0.033354       0.000279
     49 H                     0.027381       0.000020
     50 C                    -0.012687       0.004317
     51 H                     0.069899       0.000170
     52 H                     0.061527       0.001041
     53 C                    -0.098866       0.000207
     54 H                     0.115558       0.001224
     55 H                     0.021636       0.000051
     56 C                     0.012440       0.000064
     57 H                     0.011006       0.000004
     58 H                     0.004797       0.000148
     59 O                    -0.424959       0.000134
     60 O                    -0.462227       0.000004
     61 O                    -0.509914       0.216870
     62 Fe                    0.523940       4.115655
     63 O                    -0.400842       0.091313
     64 O                    -0.327241       0.071019
     65 O                    -0.442596       0.155021
     66 O                    -0.394645       0.092475
     67 O                    -0.401980       0.020408
     68 O                    -0.425220       0.150285
     69 H                     0.076352      -0.000194
     70 H                     0.078143       0.000066
  --------------------------------------------------------
  Sum of atomic charges =    -3.000000
  Sum of spin   charges =     5.000000

 -----------------------------------------------------------------
                    Cartesian Multipole Moments
 -----------------------------------------------------------------
    Charge (ESU x 10^10)
               -14.4096
    Dipole Moment (Debye)
         X     -12.1903      Y      20.8766      Z       1.5066
       Tot      24.2220
    Quadrupole Moments (Debye-Ang)
        XX    -384.2873     XY      35.5934     YY    -316.1623
        XZ      -5.1262     YZ     -42.2319     ZZ    -348.0097
    Octopole Moments (Debye-Ang^2)
       XXX    -786.8450    XXY     533.8080    XYY    -203.4313
       YYY     229.5677    XXZ     170.7205    XYZ     -88.4755
       YYZ      66.4350    XZZ      37.7974    YZZ     132.1411
       ZZZ      27.6143
    Hexadecapole Moments (Debye-Ang^3)
      XXXX  -16190.7615   XXXY    3114.4214   XXYY   -3878.7551
      XYYY    1763.0857   YYYY   -6877.9009   XXXZ    1140.0208
      XXYZ    -645.6046   XYYZ     380.1178   YYYZ    -534.3060
      XXZZ   -3295.6644   XYZZ     385.7995   YYZZ   -2139.2622
      XZZZ     143.5281   YZZZ    -639.4378   ZZZZ   -6737.1977
 -----------------------------------------------------------------
 Calculating analytic gradient of the SCF energy
 Gradient of SCF Energy
            1           2           3           4           5           6
    1   0.0424912  -0.0525678   0.0429412   0.0808159  -0.0984504   0.0832417
    2  -0.0268972  -0.0473023   0.0645833   0.0168917  -0.0374477  -0.0240941
    3   0.0154631   0.0040802  -0.0041931   0.0474973   0.0171500  -0.1394412
            7           8           9          10          11          12
    1   0.0917637  -0.1093875   0.1672803  -0.0502453  -0.0065417  -0.0329473
    2   0.0184531  -0.0281816   0.0346399  -0.0226993   0.0318752  -0.0345613
    3   0.1729276   0.0077152  -0.0589312   0.0254179  -0.0080719   0.0372158
           13          14          15          16          17          18
    1   0.0358365  -0.0423401  -0.0147995   0.0297741   0.0086275   0.0158281
    2  -0.0281850  -0.0408293   0.0721190  -0.0057701  -0.0246815   0.0178460
    3  -0.0210763   0.0174780   0.0087141  -0.0680017   0.0090034   0.1652262
           19          20          21          22          23          24
    1   0.0411905   0.0139068  -0.0611098  -0.0501295   0.1157489  -0.0144668
    2  -0.0041678   0.0489696  -0.0436363  -0.1135153   0.1362334   0.0580109
    3   0.0338544  -0.0547147  -0.0214356  -0.0756635   0.0743686   0.0690788
           25          26          27          28          29          30
    1  -0.0562284   0.1561853  -0.1097291  -0.0199311   0.0740936   0.0035197
    2  -0.0601788   0.0114342   0.0812244   0.0099030   0.0268775   0.0154778
    3  -0.0464452  -0.0063601   0.1283533   0.0073027   0.0203613  -0.0230852
           31          32          33          34          35          36
    1  -0.0565118   0.0373717  -0.0014369  -0.0168414  -0.0128403  -0.0238478
    2  -0.0174086  -0.0312256  -0.0139165  -0.0344487  -0.0253687  -0.0046388
    3   0.0087214   0.0437492  -0.0005273  -0.0476469   0.0473241  -0.0221980
           37          38          39          40          41          42
    1   0.0632478  -0.0224643   0.0081448  -0.0636721   0.0229962  -0.0261000
    2   0.0186483   0.0104468   0.0134423  -0.0145020  -0.0238070  -0.0171145
    3  -0.0036863   0.0586490   0.0251567   0.0094046  -0.0656829  -0.0328038
           43          44          45          46          47          48
    1   0.0704171  -0.0260495  -0.0183401   0.0122395  -0.0244266   0.0193299
    2   0.0163908   0.0250883  -0.0650100   0.0801531   0.0105452  -0.0205868
    3   0.0038508   0.0600559  -0.0216962   0.0094120  -0.0030953   0.0430127
           49          50          51          52          53          54
    1   0.0385246   0.0047874  -0.0021369   0.0339577   0.0485697  -0.0575662
    2   0.0186962  -0.0069149  -0.0026530  -0.0351650  -0.0026009   0.0027082
    3  -0.0280733  -0.0022817  -0.0609613   0.0185526  -0.0122101  -0.0424361
           55          56          57          58          59          60
    1  -0.0243067  -0.0377745   0.0361266   0.0406511  -0.1590810  -0.0760881
    2  -0.0109253  -0.0078676  -0.0007108   0.0062548   0.0164308  -0.0914546
    3   0.0633029  -0.0035753  -0.0496205   0.0465428   0.0045211  -0.1157924
           61          62          63          64          65          66
    1  -0.0048135  -0.0008916  -0.0347162  -0.0856026   0.0222136   0.0300798
    2   0.0092709   0.0243473  -0.0958075   0.0637829  -0.0254484  -0.0278475
    3   0.0199269  -0.0065931   0.0044668  -0.0446652   0.0075448  -0.0812097
           67          68          69          70
    1   0.0175563  -0.0038230   0.0200882  -0.0313414
    2   0.0535102  -0.0088288   0.0558994   0.0562450
    3  -0.1973442   0.0185775   0.0186354  -0.0030958
 Max gradient component =       1.973E-01
 RMS gradient           =       5.296E-02
 Computing fast CPCM-SWIG gradient
 Updating gradient with PCM contributions...
 -- total gradient after adding PCM contribution --
---------------------------------------------------
  Atom         X              Y              Z     
---------------------------------------------------
   1       0.003689       0.000241       0.000493
   2       0.000723       0.000280       0.000814
   3       0.000133       0.000103      -0.000341
   4       0.001324       0.000228       0.000243
   5      -0.003403      -0.000671       0.001106
   6       0.000795      -0.000525      -0.003443
   7       0.003362       0.000301       0.004248
   8      -0.003805      -0.001188      -0.000449
   9       0.004628       0.001390      -0.001444
  10      -0.000305      -0.001297       0.000882
  11       0.000640      -0.001783       0.001633
  12      -0.000540       0.000201      -0.000117
  13       0.000060       0.000092      -0.000423
  14      -0.000264       0.000059       0.000455
  15      -0.000832       0.000756       0.000221
  16       0.000291      -0.000459      -0.000661
  17       0.000763      -0.000118      -0.000954
  18       0.000892       0.001587       0.005391
  19      -0.000414      -0.000062      -0.000299
  20       0.000394       0.000122      -0.000383
  21      -0.000505      -0.000447      -0.000107
  22       0.000167      -0.002805      -0.003109
  23       0.003311       0.003736       0.002452
  24      -0.000615      -0.000167       0.001557
  25      -0.002263      -0.001539      -0.000838
  26       0.003680       0.000400      -0.000601
  27      -0.002298       0.002429       0.004058
  28      -0.003326      -0.000632      -0.000531
  29       0.001193       0.001462       0.001675
  30       0.000185      -0.000097       0.002184
  31      -0.000514      -0.000481      -0.000399
  32       0.000126      -0.000078      -0.000233
  33      -0.000896       0.000190       0.000021
  34       0.000337      -0.000037      -0.000055
  35       0.000121      -0.000113       0.000297
  36       0.000048       0.000352       0.000314
  37       0.000692       0.000078      -0.000176
  38      -0.000113      -0.000161       0.000005
  39      -0.001065      -0.000191      -0.000217
  40      -0.000286       0.000087       0.000152
  41       0.000689      -0.000244      -0.000706
  42       0.000413       0.000166       0.000616
  43       0.000427      -0.000018      -0.000169
  44      -0.000347       0.000311       0.000149
  45      -0.000547       0.001092       0.001238
  46       0.000337       0.000143      -0.000185
  47       0.000336       0.000560       0.000256
  48      -0.000170      -0.000146       0.000049
  49      -0.000039       0.000537      -0.000574
  50       0.000605       0.000472      -0.000731
  51      -0.000127      -0.000167      -0.000093
  52       0.000100      -0.000491       0.000175
  53       0.000867      -0.000305       0.001344
  54      -0.001960      -0.000475      -0.002218
  55      -0.000014      -0.000113       0.000230
  56       0.000112      -0.000277       0.000210
  57       0.000707      -0.000342      -0.000660
  58       0.000260       0.000233       0.000438
  59      -0.004293       0.000309      -0.001039
  60      -0.001195      -0.003123      -0.004367
  61      -0.000781      -0.000935       0.001590
  62       0.002235       0.000392      -0.000603
  63      -0.001017      -0.003636       0.001953
  64      -0.005777       0.003027      -0.001571
  65      -0.000980       0.000222       0.001312
  66       0.002303       0.000113      -0.003069
  67       0.000672       0.001898      -0.005758
  68       0.000669      -0.000279      -0.001102
  69       0.000369      -0.000204       0.000062
  70       0.000039       0.000040      -0.000196
---------------------------------------------------
 Number of fixed atoms: 0
 Gradient time:  CPU 25513.86 s  wall 13365.34 s

 *****************************************************
             Starting BFGS Algorithm
 *****************************************************
            LIBOPT3 RUN PARAMETERS

  Geometry Optimization Coordinates :
	Delocalized Natural Internal Coordinates

  Step Length Selection Method :
	Eigenvector Following Algorithm

  Convergence Criteria :
	Max Gradient Component    	3.00000000e-04
	Max Displacement Component	1.20000000e-03
	Absolute Energy Difference	1.00000000e-06

  Initial Hessian :
	Approximate Hessian - Simple Internal Coordinate Scaled

  Type of Verification :
	Verify with final updated Hessian
 *****************************************************

	OPTIMIZATION CYCLE:	1

 Scaling Magnitude of Eigenvalues
 	Minimum: -25.00000000	 Maximum: 25.00000000
 204 Hessian Eigenvalues to form next step
   0.10000000   0.10000000   0.10000000   0.10000000   0.10000000
   0.10000000   0.10000000   0.10000000   0.10000000   0.10000000
   0.10000058   0.10000146   0.10000178   0.10000541   0.10000736
   0.10000762   0.10001798   0.10001843   0.10003142   0.10003617
   0.10007647   0.10013746   0.10015605   0.10016104   0.10038342
   0.10077470   0.10137707   0.10270439   0.10475024   0.10507845
   0.10562181   0.10726069   0.10946912   0.11059713   0.11142074
   0.11214767   0.11441953   0.11611769   0.11724817   0.11841208
   0.11920357   0.11950978   0.11965488   0.12002741   0.12078840
   0.12268708   0.12292564   0.12415297   0.12475916   0.12529953
   0.12623931   0.12656504   0.12691558   0.12728347   0.12753385
   0.12769726   0.12868744   0.13027308   0.13150061   0.13279470
   0.13397551   0.13426127   0.13451627   0.13651543   0.13716392
   0.13967471   0.14090759   0.14098420   0.14177448   0.14487374
   0.14610365   0.14622619   0.14823886   0.14993092   0.14999743
   0.15132402   0.15190693   0.15291060   0.15301343   0.15351703
   0.15559967   0.15661528   0.15725125   0.15816367   0.15824788
   0.16058997   0.16562459   0.16704078   0.17423610   0.17491206
   0.17585793   0.17613979   0.17678909   0.17687403   0.17794855
   0.17810399   0.17929934   0.17991887   0.18226481   0.18455837
   0.18525045   0.18714197   0.18912075   0.19097787   0.19531321
   0.19650928   0.19678991   0.19728612   0.19881197   0.19909776
   0.19919005   0.19976253   0.19987474   0.19991178   0.19991593
   0.19995277   0.19995418   0.19999509   0.20000000   0.20000000
   0.20000000   0.20000000   0.20000000   0.20000000   0.20000000
   0.20000000   0.20000000   0.20000000   0.20000000   0.20000000
   0.37226174   0.40273066   0.42440854   0.43183041   0.43330834
   0.43655113   0.46363602   0.46628012   0.47569270   0.48001965
   0.48448141   0.48593306   0.49375390   0.49709354   0.49885500
   0.50000000   0.50000000   0.50000000   0.50000000   0.50000000
   0.50000000   0.50000000   0.50000000   0.50000000   0.50000000
   0.50000000   0.50000000   0.50000000   0.50000000   0.50000000
   0.50000000   0.50000000   0.50000000   0.50000000   0.50000000
   0.50000000   0.50000000   0.50000000   0.50000000   0.50000000
   0.50000000   0.50000000   0.50000000   0.50000000   0.50000000
   0.50000000   0.50000000   0.50000000   0.50000000   0.50000000
   0.50000000   0.50000000   0.50000000   0.50000000   0.50000000
   0.50000000   0.50000000   0.50000000   0.50000000   0.50000000
   0.50000000   0.50000000   0.50000000   0.50000000   0.50000000
   0.50000000   0.50000000   0.50000000   0.50000000   0.50000000
   0.50000000   0.50000000   0.50000000   0.50000000

 Minimum Search taking a RFO step
 Searching for Lambda that minimizes along all modes
	Value of Lambda   -0.00089405
	Norm  of Stepsize  0.05498362
	RMS   of Stepsize  0.00384962

	Performing Iterative Coordinate Back-Transformation

	  Starting from Previous Position

	  iter:	0	rms: 9.5392530046e-03	maxdev: 3.1735851576e-02
	  iter:	1	rms: 3.6337765526e-05	maxdev: 2.8572846504e-04
	  iter:	2	rms: 7.2766420252e-10	maxdev: 7.0641557270e-09	 Success!

	Finished Iterative Coordinate Back-Transformation
 Adding empirical dispersion correction 
 ----------------------------------------------------------------
 Doing -D3(BJ) with
 s6  =   1.00000e+00
 s8  =   2.23820e+00
 a1  =   4.52900e-01
 a2  =   4.65500e+00
 -D3 energy without 3body term =     -1.3061288714e-01 hartrees
 ----------------------------------------------------------------
             Standard Nuclear Orientation (Angstroms)
    I     Atom           X                Y                Z
 ----------------------------------------------------------------
    1      C      -2.7934252608     1.9138085851     1.5524301230
    2      C      -2.8320233350    -1.4319998443    -1.3737681654
    3      H      -3.4397323954    -2.3523854507    -1.2956415298
    4      N      -1.9276197435    -1.3784568496    -0.2376028595
    5      H      -0.9399798683    -1.2019630898    -0.4413788263
    6      C      -2.0009700096    -1.5384863984    -2.6864965201
    7      O      -2.6740509829    -1.6060836627    -3.7513201617
    8      C      -2.2687818468    -1.5977586782     1.0461736761
    9      O      -3.4528375856    -1.7497974259     1.4221987349
   10      N      -2.4982991331     2.8979056995     0.6798436508
   11      C      -3.4228594927     3.4071454820    -0.3492240418
   12      H      -2.7969148240     4.0506633194    -0.9795035229
   13      H      -4.1864713346     4.0439445223     0.1234272219
   14      C      -1.1161539193    -1.8463835816     2.0181789978
   15      H      -0.8505691131    -2.9016380890     1.8413250522
   16      H      -1.5197561193    -1.7723936180     3.0365066652
   17      C       0.2048122251    -1.0153237273     1.9316243323
   18      C       0.3053224070     0.0013077308     3.1098099273
   19      C       1.4262738961    -1.9636712282     2.1381035627
   20      H       1.2085320122    -2.6647630540     2.9588018558
   21      H       2.2992376653    -1.3604159379     2.4298733027
   22      C       1.7480106631    -2.7350195254     0.8678336558
   23      O       0.9349718737    -3.5081348214     0.3185499726
   24      N       2.9846402285    -2.5051074264     0.3808607843
   25      H       3.6495223799    -1.9006046124     0.8682669512
   26      C       5.0607039791    -2.7370659501    -0.8582965477
   27      O       5.7197377639    -3.2858960194    -1.7827333424
   28      C       2.5701628995     2.3193045256    -0.4116255564
   29      N       1.8574085471     1.8712134997    -1.4404687712
   30      C       2.3303089578     1.5268133789    -2.7809495621
   31      H       3.3605215686     1.8925353370    -2.8783738701
   32      H       1.6992283758     2.0775360786    -3.4962566902
   33      C       4.0458673145     2.5866229843    -0.5210591331
   34      H       4.3438198107     3.2022511489     0.3370891594
   35      H       4.3144857012     3.1066992245    -1.4506333310
   36      C       2.2575865804     0.0177842781    -3.0382313280
   37      H       1.2067563912    -0.3101438695    -3.0032730065
   38      H       2.6213238640    -0.1609716449    -4.0653931083
   39      C       3.0828008589    -0.7710343612    -2.0227812519
   40      H       4.1534277837    -0.5253721646    -2.1415418716
   41      H       2.7969423297    -0.4351296197    -1.0125375182
   42      C       2.8839205604    -2.2864908367    -2.0852769633
   43      H       1.8065980910    -2.5175715183    -2.1028493056
   44      H       3.3327224159    -2.7064166615    -3.0010133860
   45      C       3.5260979430    -2.9973346740    -0.8743323342
   46      H       3.3446976083    -4.0809463239    -0.9614707945
   47      C      -4.0832160368     2.2773756224    -1.1595304386
   48      H      -4.5470761584     2.7277529138    -2.0533889418
   49      H      -4.9169227288     1.8693255841    -0.5646087056
   50      C      -4.1995654191     1.7308755687     2.0509954149
   51      H      -4.1759802921     1.7745981522     3.1511512950
   52      H      -4.9004809921     2.4862152047     1.6766373945
   53      C      -3.1374186748     1.1195020315    -1.5371674648
   54      H      -2.2685792531     1.1120173675    -0.8601224245
   55      H      -2.7270811657     1.2686436584    -2.5503371230
   56      C      -3.8181258018    -0.2499037741    -1.4358685618
   57      H      -4.4326222802    -0.2798737578    -0.5217781611
   58      H      -4.4860904223    -0.4221205912    -2.2951880483
   59      O      -0.7363513879    -1.5416657787    -2.5706057548
   60      O       5.4917951302    -1.9681588360     0.0568743947
   61      O       0.3619290907    -0.3427198084     0.7134283080
   62      Fe      0.1101742175     1.5550698592     0.7976935082
   63      O       0.6568976297     1.2032947000     2.7608484525
   64      O      -1.8568954211     1.1803822058     1.9705871198
   65      O      -1.1765667050     2.9864794027     0.3233402147
   66      O       1.9669512410     2.4867950086     0.7116238410
   67      O       0.1272084589    -0.3772456894     4.2819773034
   68      O       0.5422261302     1.6257314761    -1.2134064841
   69      H      -4.5428531214     0.7238056742     1.7689953788
   70      H       4.6049932310     1.6368694760    -0.4818872429
 ----------------------------------------------------------------
 Nuclear Repulsion Energy =        6282.46214578 hartrees
 There are      164 alpha and      159 beta electrons
No default van der Waals radius is available for Z = 26
	Found R = 2.4400 A in the $van_der_waals section
 Discretize the solute cavity surface with Lebedev spheres
	Using 110 Lebedev grid points for each H atom
	Using 194 Lebedev grid points for other atoms
	Atomic van der Waals radii (Bondi set) will be scaled by 1.20
 Using smooth SwiG surface discretization
 Remove points where switching function is < 1.0e-08
 Keep 4043 surface tesserae and discard 7017 interior tesserae
 Molecular Surface Area = 510.378 Angst**2

 Applying Cartesian multipole field
    Component          Value
    ---------          -----
     (2,0,0)        1.00000E-12
     (0,2,0)        2.00000E-11
     (0,0,2)       -3.00000E-11
 Nucleus-field energy     =-1.3177277003e-08 hartrees
 Read the previous MOs as SCF guess

 -----------------------------------------------------------------------
  General SCF calculation program by
  Eric Jon Sundstrom, Paul Horn, Yuezhi Mao, Dmitri Zuev, Alec White,
  David Stuck, Shaama M.S., Shane Yost, Joonho Lee, David Small,
  Daniel Levine, Susi Lehtola, Hugh Burton, Evgeny Epifanovsky,
  Bang C. Huynh
 -----------------------------------------------------------------------
 Requested basis set is non-standard
 There are 339 shells and 739 basis functions
 Exchange:     0.1000 Hartree-Fock + 0.9000 TPSS
 Correlation:  1.0000 TPSS
 Using SG-2 standard quadrature grid
 Dispersion:   Grimme D3
 A cutoff of  1.0D-12 yielded  48882 shell pairs
 There are    213388 function pairs (    236822 Cartesian)
 Smallest overlap matrix eigenvalue = 2.42E-04
 A unrestricted SCF calculation will be
 performed using DIIS
 SCF converges when DIIS error is below 1.0e-08
 ---------------------------------------
  Cycle       Energy         DIIS error
 ---------------------------------------
    1   -3317.4296465738      2.55e-04  
    2   -3317.9214302241      4.37e-04  
    3   -3317.9896967267      1.92e-04  
    4   -3317.9996225477      1.13e-04  
    5   -3318.0035776891      9.03e-05  
    6   -3318.0059499834      6.54e-05  
    7   -3318.0078064792      3.27e-05  
    8   -3318.0084096350      1.12e-05  
    9   -3318.0084683723      4.29e-06  
   10   -3318.0084739478      1.68e-06  
   11   -3318.0084747002      5.40e-07  
   12   -3318.0084747956      3.09e-07  
   13   -3318.0084748278      1.41e-07  
   14   -3318.0084748339      6.83e-08  
   15   -3318.0084748354      3.46e-08  
   16   -3318.0084748361      1.28e-08  
   17   -3318.0084748358      7.64e-09  Convergence criterion met
 ---------------------------------------
 SCF time:   CPU 39377.10s  wall 19897.00s 
<S^2> =          8.758381714

************** Final PCM Free Energy Summary **************
 G_electrostatic  =      -0.54222938 hartree =    -340.25407126 kcal/mol
 G_cavitation     =       0.00000000 hartree =       0.00000000 kcal/mol
 G_dispersion     =       0.00000000 hartree =       0.00000000 kcal/mol
 G_repulsion      =       0.00000000 hartree =       0.00000000 kcal/mol
 --------------------------------------------------
 Non-electrostatic Free Energy =       0.00000000 hartree =       0.00000000 kcal/mol
 Total                         =      -0.54222938 hartree =    -340.25407126 kcal/mol
 --------------------------------------------------
 SCF Energy (H0 + V/2)                       =   -3318.00847484 
 Solute Internal Energy (H0)                 =   -3317.46624546 
 Total Free Energy (H0 + V/2 + non-elec)     =   -3318.00847484 hartree
                                             = -2082081.74281776 kcal/mol
***********************************************************

 SCF   energy in the final basis set =    -3318.0084748358
 Total energy in the final basis set =    -3318.0084748358
 
 --------------------------------------------------------------
 
                    Orbital Energies (a.u.)
 --------------------------------------------------------------
 
 Alpha MOs
 -- Occupied --
******** -29.9593 -25.7901 -25.7892 -25.7851 -19.0507 -19.0506 -19.0436
-19.0408 -19.0221 -19.0124 -19.0106 -19.0041 -19.0023 -18.9838 -18.9827
-18.9767 -18.9760 -14.3338 -14.3244 -14.2556 -14.2407 -10.2112 -10.2090
-10.1989 -10.1957 -10.1906 -10.1782 -10.1769 -10.1582 -10.1556 -10.1549
-10.1321 -10.1300 -10.1284 -10.1246 -10.1161 -10.1123 -10.1075 -10.1044
-10.1038 -10.1029 -10.1017 -10.1017  -3.5400  -2.3158  -2.3143  -2.3069
 -1.0496  -1.0437  -1.0003  -0.9818  -0.9770  -0.9749  -0.9729  -0.9680
 -0.9655  -0.9330  -0.9104  -0.8872  -0.8831  -0.8695  -0.8597  -0.8243
 -0.8204  -0.7636  -0.7588  -0.7388  -0.7256  -0.7183  -0.6997  -0.6958
 -0.6806  -0.6598  -0.6483  -0.6068  -0.5978  -0.5784  -0.5607  -0.5592
 -0.5240  -0.5204  -0.5148  -0.5089  -0.4921  -0.4887  -0.4852  -0.4802
 -0.4727  -0.4681  -0.4639  -0.4522  -0.4494  -0.4443  -0.4376  -0.4362
 -0.4316  -0.4284  -0.4163  -0.4141  -0.4099  -0.4092  -0.4056  -0.4043
 -0.4023  -0.3927  -0.3914  -0.3867  -0.3843  -0.3823  -0.3798  -0.3774
 -0.3753  -0.3730  -0.3684  -0.3650  -0.3613  -0.3598  -0.3557  -0.3551
 -0.3479  -0.3462  -0.3446  -0.3421  -0.3394  -0.3389  -0.3341  -0.3314
 -0.3297  -0.3279  -0.3256  -0.3229  -0.3209  -0.3153  -0.3076  -0.3040
 -0.3005  -0.2993  -0.2965  -0.2929  -0.2917  -0.2854  -0.2839  -0.2728
 -0.2650  -0.2511  -0.2475  -0.2311  -0.2210  -0.2187  -0.2177  -0.2139
 -0.2097  -0.2051  -0.2043  -0.2034  -0.1985  -0.1937  -0.1916  -0.1847
 -0.1833  -0.1822  -0.1816  -0.1736
 -- Virtual --
  0.0050   0.0105   0.0204   0.0341   0.0377   0.0526   0.0608   0.0634
  0.0680   0.0714   0.0771   0.0853   0.0880   0.0945   0.1048   0.1060
  0.1108   0.1147   0.1173   0.1212   0.1237   0.1290   0.1316   0.1388
  0.1445   0.1460   0.1488   0.1546   0.1571   0.1616   0.1624   0.1645
  0.1685   0.1720   0.1744   0.1765   0.1799   0.1810   0.1868   0.1897
  0.1956   0.1994   0.2038   0.2118   0.2139   0.2164   0.2201   0.2216
  0.2236   0.2310   0.2366   0.2421   0.2472   0.2506   0.2534   0.2572
  0.2645   0.2695   0.2735   0.2754   0.2818   0.2899   0.2909   0.2946
[...]
    3   0.0123287   0.0044198  -0.0046683   0.0468461   0.0167923  -0.1365169
            7           8           9          10          11          12
    1   0.0893306  -0.1076678   0.1646761  -0.0486388  -0.0072938  -0.0318466
    2   0.0164053  -0.0294312   0.0389803  -0.0202599   0.0323972  -0.0337214
    3   0.1683136   0.0086320  -0.0591017   0.0273979  -0.0093782   0.0383620
           13          14          15          16          17          18
    1   0.0349979  -0.0405306  -0.0165681   0.0288589   0.0091138   0.0137683
    2  -0.0282691  -0.0413648   0.0704167  -0.0031993  -0.0255012   0.0167448
    3  -0.0212164   0.0159224   0.0105218  -0.0677718   0.0104811   0.1601286
           19          20          21          22          23          24
    1   0.0405011   0.0131259  -0.0602930  -0.0453555   0.1084573  -0.0139635
    2  -0.0030646   0.0482026  -0.0448719  -0.1113785   0.1355071   0.0545874
    3   0.0335702  -0.0553158  -0.0206767  -0.0714044   0.0700044   0.0678417
           25          26          27          28          29          30
    1  -0.0547453   0.1514922  -0.1093422  -0.0166122   0.0729702   0.0026424
    2  -0.0581486   0.0124901   0.0759716   0.0128584   0.0236364   0.0167296
    3  -0.0436680  -0.0065761   0.1235228   0.0066271   0.0203356  -0.0243410
           31          32          33          34          35          36
    1  -0.0564489   0.0379924  -0.0020361  -0.0161670  -0.0163903  -0.0241757
    2  -0.0175138  -0.0325803  -0.0143875  -0.0381835  -0.0211297  -0.0037847
    3   0.0084591   0.0431997   0.0005480  -0.0455730   0.0496569  -0.0223847
           37          38          39          40          41          42
    1   0.0628919  -0.0215140   0.0091573  -0.0634582   0.0215374  -0.0252714
    2   0.0184125   0.0095888   0.0131478  -0.0148197  -0.0231418  -0.0182492
    3  -0.0046881   0.0592382   0.0239402   0.0102826  -0.0642980  -0.0318880
           43          44          45          46          47          48
    1   0.0703096  -0.0266195  -0.0170931   0.0111365  -0.0239626   0.0216652
    2   0.0171725   0.0258085  -0.0655842   0.0804837   0.0089715  -0.0189969
    3   0.0037430   0.0590069  -0.0202632   0.0076535  -0.0020212   0.0424551
           49          50          51          52          53          54
    1   0.0362639   0.0044258  -0.0055118   0.0322579   0.0463239  -0.0546822
    2   0.0189476  -0.0071398  -0.0011625  -0.0365664  -0.0015341   0.0022384
    3  -0.0294600  -0.0018606  -0.0606249   0.0156065  -0.0137811  -0.0408874
           55          56          57          58          59          60
    1  -0.0243786  -0.0379092   0.0358731   0.0402605  -0.1554805  -0.0710464
    2  -0.0117486  -0.0081216  -0.0003533   0.0065608   0.0183829  -0.0869441
    3   0.0629962  -0.0034714  -0.0488605   0.0462433   0.0057667  -0.1115881
           61          62          63          64          65          66
    1  -0.0045369  -0.0021991  -0.0323237  -0.0793362   0.0228286   0.0311237
    2   0.0094329   0.0249609  -0.0938424   0.0609483  -0.0248370  -0.0287384
    3   0.0187160  -0.0062533   0.0032002  -0.0390268   0.0067423  -0.0782205
           67          68          69          70
    1   0.0176397  -0.0052889   0.0236435  -0.0289573
    2   0.0517008  -0.0098430   0.0547102   0.0576194
    3  -0.1912197   0.0187951   0.0184530  -0.0097450
 Max gradient component =       1.912E-01
 RMS gradient           =       5.172E-02
 Computing fast CPCM-SWIG gradient
 Updating gradient with PCM contributions...
 -- total gradient after adding PCM contribution --
---------------------------------------------------
  Atom         X              Y              Z     
---------------------------------------------------
   1      -0.000062      -0.000038      -0.000023
   2       0.000011       0.000043       0.000046
   3      -0.000018      -0.000001       0.000007
   4      -0.000044      -0.000044      -0.000036
   5       0.000022       0.000040       0.000026
   6       0.000035      -0.000011      -0.000061
   7       0.000008       0.000019       0.000016
   8      -0.000044       0.000003      -0.000021
   9       0.000026       0.000017      -0.000003
  10       0.000064      -0.000003       0.000043
  11       0.000006       0.000079       0.000005
  12       0.000007      -0.000016       0.000008
  13      -0.000013      -0.000045       0.000028
  14       0.000042      -0.000086       0.000039
  15       0.000004       0.000010      -0.000026
  16      -0.000004       0.000000      -0.000002
  17      -0.000045       0.000148       0.000071
  18       0.000008      -0.000049      -0.000060
  19       0.000079      -0.000041       0.000015
  20      -0.000008      -0.000024      -0.000027
  21       0.000000      -0.000013       0.000023
  22      -0.000052       0.000050      -0.000054
  23       0.000024      -0.000009       0.000014
  24       0.000101      -0.000057      -0.000033
  25      -0.000055       0.000013       0.000012
  26       0.000037       0.000047       0.000006
  27      -0.000004       0.000015      -0.000024
  28       0.000018       0.000045       0.000003
  29       0.000006      -0.000111      -0.000002
  30       0.000001       0.000049       0.000036
  31      -0.000005      -0.000006       0.000011
  32      -0.000001       0.000007      -0.000014
  33      -0.000036      -0.000023      -0.000003
  34       0.000008      -0.000020       0.000023
  35      -0.000004       0.000046       0.000013
  36      -0.000013       0.000062       0.000011
  37       0.000005      -0.000011      -0.000006
  38      -0.000030      -0.000005      -0.000016
  39       0.000070       0.000027       0.000018
  40      -0.000011      -0.000005      -0.000030
  41      -0.000034      -0.000003      -0.000014
  42      -0.000041      -0.000025       0.000035
  43       0.000004       0.000008      -0.000026
  44       0.000005       0.000025      -0.000017
  45       0.000015      -0.000026      -0.000056
  46      -0.000035       0.000017       0.000015
  47       0.000010       0.000053       0.000001
  48      -0.000035      -0.000035       0.000018
  49       0.000014      -0.000010       0.000022
  50       0.000035      -0.000037      -0.000007
  51      -0.000001       0.000010       0.000011
  52      -0.000011      -0.000009       0.000011
  53       0.000026      -0.000002      -0.000012
  54      -0.000024      -0.000020       0.000018
  55      -0.000013       0.000011       0.000008
  56       0.000028       0.000001       0.000028
  57      -0.000018      -0.000009      -0.000021
  58      -0.000016      -0.000016       0.000001
  59      -0.000023      -0.000010      -0.000002
  60       0.000000      -0.000016      -0.000017
  61      -0.000008       0.000047      -0.000031
  62      -0.000102      -0.000058       0.000011
  63      -0.000009      -0.000044       0.000031
  64       0.000123       0.000059       0.000002
  65      -0.000057      -0.000019      -0.000054
  66       0.000008       0.000052      -0.000004
  67       0.000034      -0.000008      -0.000014
  68      -0.000014      -0.000020       0.000052
  69       0.000003      -0.000014       0.000008
  70       0.000004      -0.000002      -0.000031
---------------------------------------------------
 Number of fixed atoms: 0
 Gradient time:  CPU 24728.90 s  wall 12393.14 s

     Step 24	:
        Energy is -3318.0090229477
                            Maximum         Tolerance       Converged?
         Gradient           6.61832568e-05	3.00000000e-04	true
         Displacement       3.15051154e-03	1.20000000e-03	false
         Energy change      8.71294105e-07	1.00000000e-06	true

	 Optimization Converged in 24 cycles

 *****************************************************
             End of BFGS Algorithm
 *****************************************************
		----------------------------------
		   Verification of Optimization
		----------------------------------

 Eigenvalues of Hessian in Optimization Verification
   0.00176065   0.00550857   0.00927935   0.02271720   0.03654571
   0.05516206   0.09984564   0.10000061   0.10000077   0.10000128
   0.10000263   0.10000362   0.10000722   0.10001178   0.10001320
   0.10001880   0.10002423   0.10003183   0.10004606   0.10005757
   0.10011408   0.10013702   0.10025702   0.10045064   0.10075533
   0.10085916   0.10139924   0.10227988   0.10306192   0.10371898
   0.10516750   0.10579705   0.10705619   0.10885330   0.11055083
   0.11184226   0.11211754   0.11466674   0.11606234   0.11714061
   0.11738973   0.11828852   0.11941845   0.11965228   0.12078801
   0.12127842   0.12301108   0.12375374   0.12450338   0.12531000
   0.12587243   0.12655882   0.12701805   0.12716004   0.12768893
   0.12770395   0.12958685   0.13002758   0.13168551   0.13205817
   0.13271354   0.13352677   0.13486629   0.13627405   0.13818130
   0.13939773   0.14008935   0.14071900   0.14162201   0.14481463
   0.14499630   0.14601197   0.14778692   0.14954746   0.15003647
   0.15013358   0.15070532   0.15191719   0.15298386   0.15360676
   0.15460592   0.15565990   0.15716770   0.15766927   0.15833823
   0.16043653   0.16320963   0.16715773   0.17397469   0.17483229
   0.17548160   0.17627982   0.17670249   0.17773433   0.17816659
   0.17904374   0.17959229   0.18012197   0.18255485   0.18375374
   0.18568363   0.18882390   0.18902123   0.19225304   0.19546024
   0.19661227   0.19679424   0.19731929   0.19746187   0.19884052
   0.19927398   0.19937818   0.19944271   0.19968837   0.19982952
   0.19990571   0.19995212   0.19996379   0.19998604   0.19999845
   0.20001583   0.20005800   0.20022883   0.20244514   0.20398129
   0.21501814   0.23239351   0.26529577   0.30871073   0.33414728
   0.37359847   0.39471749   0.40388102   0.41902925   0.43184113
   0.43232274   0.44819306   0.45518813   0.46162905   0.46335924
   0.46794552   0.47869219   0.48020880   0.48513499   0.48562491
   0.48756891   0.49282657   0.49519859   0.49729728   0.49918706
   0.49981725   0.49984512   0.49987342   0.50000000   0.50000000
   0.50000000   0.50000000   0.50000000   0.50000000   0.50000000
   0.50000000   0.50000000   0.50000000   0.50000000   0.50000000
   0.50000000   0.50000000   0.50000000   0.50000000   0.50000000
   0.50000000   0.50000000   0.50000000   0.50000000   0.50000000
   0.50000000   0.50000000   0.50000000   0.50000000   0.50000000
   0.50000000   0.50000000   0.50000000   0.50000000   0.50000000
   0.50000000   0.50000000   0.50000024   0.50000043   0.50000114
   0.50000185   0.50000486   0.50001154   0.50004359   0.50012132
   0.50127318   0.50328719   0.51378213   0.52205018   0.53423563
   0.54321017   0.56358885   0.65983429   0.82072300

 Found a minimum
		---------------------------------
		       End of Verification
		---------------------------------

 Final energy is -3318.009022947695

	******************************
	**  OPTIMIZATION CONVERGED  **
	******************************
 Adding empirical dispersion correction 
 ----------------------------------------------------------------
 Doing -D3(BJ) with
 s6  =   1.00000
 s8  =   2.23820
 a1  =   0.45290
 a2  =   4.65500
 -D3 energy without 3body term =     -0.1303827695 hartrees
 ----------------------------------------------------------------
             Standard Nuclear Orientation (Angstroms)
    I     Atom           X                Y                Z
 ----------------------------------------------------------------
    1      C      -2.7934634565     1.9523641054     1.5277049328
    2      C      -2.8501445433    -1.4292249168    -1.3823261010
    3      H      -3.4434500796    -2.3579182703    -1.2930713450
    4      N      -1.9376580694    -1.3595993552    -0.2525712829
    5      H      -0.9541864538    -1.1642156354    -0.4625977565
    6      C      -2.0265999334    -1.5270454140    -2.7005471053
    7      O      -2.7026770310    -1.5838346979    -3.7620463947
    8      C      -2.2584209351    -1.6285754029     1.0265399015
    9      O      -3.4330083063    -1.8292631870     1.4046192752
   10      N      -2.5150172433     2.9258627350     0.6401837456
   11      C      -3.4700249232     3.4169900985    -0.3737466692
   12      H      -2.8602826215     4.0482254147    -1.0314093440
   13      H      -4.2232562294     4.0563547508     0.1112049423
   14      C      -1.0925565334    -1.8694869284     1.9828439029
   15      H      -0.8000863194    -2.9125513803     1.7766567027
   16      H      -1.4868255549    -1.8267465241     3.0070298928
   17      C       0.2073546453    -1.0060778934     1.9085592577
   18      C       0.2773167499     0.0105167752     3.0861037782
   19      C       1.4450406818    -1.9312468347     2.1292356930
   20      H       1.2351638729    -2.6229071115     2.9599847327
   21      H       2.3082315361    -1.3091132495     2.4103821322
   22      C       1.7779291533    -2.7137066416     0.8692634750
   23      O       0.9824611850    -3.5124889719     0.3345804902
   24      N       3.0030189209    -2.4581350612     0.3697288977
   25      H       3.6715194080    -1.8536052895     0.8549799973
   26      C       5.0896427200    -2.6896598354    -0.8497237630
   27      O       5.7592844707    -3.2209927121    -1.7735728613
   28      C       2.5804468693     2.2607143106    -0.3755606988
   29      N       1.8713980905     1.8450223697    -1.4208900507
   30      C       2.3393782261     1.5203702132    -2.7695990277
   31      H       3.3707840395     1.8841817308    -2.8656394585
   32      H       1.7037566305     2.0867857950    -3.4677964472
   33      C       4.0681931684     2.4611203899    -0.4474288917
   34      H       4.3591262105     3.1376702316     0.3666123257
   35      H       4.3963411553     2.8841378186    -1.4060034833
   36      C       2.2610138665     0.0149037756    -3.0485587260
   37      H       1.2101378588    -0.3125996111    -2.9972565274
   38      H       2.6066528395    -0.1512678745    -4.0839054492
   39      C       3.1071155125    -0.7768080327    -2.0525169373
   40      H       4.1742814607    -0.5274662694    -2.1918193555
   41      H       2.8359696691    -0.4411707858    -1.0382788058
   42      C       2.9161342647    -2.2940105487    -2.0985760412
   43      H       1.8404980471    -2.5341075711    -2.1136605462
   44      H       3.3738111414    -2.7263543364    -3.0039105022
   45      C       3.5590499759    -2.9745645732    -0.8698950215
   46      H       3.3894681483    -4.0619176195    -0.9312385570
   47      C      -4.1424284523     2.2615754390    -1.1370323906
   48      H      -4.6559106999     2.6825375165    -2.0180441030
   49      H      -4.9364881563     1.8464951124    -0.4939102765
   50      C      -4.1766236821     1.8064478477     2.0960785639
   51      H      -4.0938342698     1.8229556951     3.1938478825
   52      H      -4.8621396496     2.6000513668     1.7748549123
   53      C      -3.1884446361     1.1165276346    -1.5310199694
   54      H      -2.3193061484     1.1105121764    -0.8531658250
   55      H      -2.7818664783     1.2799830424    -2.5435806514
   56      C      -3.8533535270    -0.2609273220    -1.4374689557
   57      H      -4.4675297914    -0.3019905009    -0.5225115305
   58      H      -4.5200309461    -0.4381616031    -2.2970248557
   59      O      -0.7624899510    -1.5362883026    -2.5938848532
   60      O       5.5102326099    -1.9192627359     0.0678365391
   61      O       0.3635313968    -0.3333483738     0.6891841488
   62      Fe      0.0739196231     1.5614721365     0.7772511632
   63      O       0.6160166474     1.2172458018     2.7444798569
   64      O      -1.8522597453     1.2050528604     1.9115800084
   65      O      -1.2076419292     2.9808099134     0.2280451148
   66      O       1.9602005390     2.4486943603     0.7337345723
   67      O       0.0934334411    -0.3719258609     4.2543330696
   68      O       0.5431073275     1.6558387963    -1.2172539690
   69      H      -4.5819698471     0.8249390635     1.8079762949
   70      H       4.5813610402     1.4960287570    -0.2992440724
 ----------------------------------------------------------------
 Nuclear Repulsion Energy =        6282.73591585 hartrees
 There are      164 alpha and      159 beta electrons

Z-matrix Print:
$molecule
-3 6
Fe
O  1 1.918847
C  2 1.401368 1 114.663304
C  3 1.557232 2 109.851255 1 -17.708088 0
O  4 1.242914 3 120.213372 2 176.355025 0
O  4 1.299084 3 114.788520 2 -7.718657 0
C  3 1.560930 2 108.613117 1 -131.022485 0
H  7 1.100542 3 108.842739 2 74.507004 0
H  7 1.101175 3 109.136232 2 -167.641831 0
C  7 1.520062 3 111.195920 2 -45.985788 0
O  10 1.247681 7 123.034662 3 -60.595306 0
N  10 1.347478 7 114.126992 3 118.673707 0
H  12 1.023630 10 122.007184 7 5.317859 0
C  12 1.453457 10 126.626647 7 -175.104205 0
H  14 1.102206 12 109.823958 10 -47.641047 0
C  14 1.544717 12 111.261620 10 73.188945 0
H  16 1.102210 14 108.728487 12 -62.999244 0
H  16 1.102733 14 107.911729 12 -179.858667 0
C  16 1.529869 14 111.162686 12 57.948642 0
H  19 1.102203 16 107.396811 14 -47.315254 0
H  19 1.104726 16 109.915280 14 68.222708 0
C  19 1.528004 16 115.156665 14 -167.396565 0
H  22 1.101921 19 110.104601 16 48.921886 0
H  22 1.104093 19 111.096620 16 -69.812819 0
C  22 1.533098 19 111.215788 16 170.354026 0
H  25 1.097898 22 110.946790 19 61.092728 0
H  25 1.101055 22 111.116638 19 -178.177000 0
N  25 1.464042 22 111.656360 19 -59.314367 0
C  28 1.329761 25 128.539568 22 109.890728 0
O  29 1.284748 28 117.843886 25 -177.940088 0
O  28 1.357061 25 114.846880 22 -68.091306 0
C  29 1.502903 28 122.136063 25 -0.265994 0
H  32 1.097736 29 108.003732 28 159.135897 0
H  32 1.097948 29 112.891339 28 38.155058 0
H  32 1.103042 29 109.721252 28 -82.841405 0
C  14 1.557014 12 107.457692 10 -166.579081 0
O  36 1.258663 14 115.864573 12 171.366988 0
O  36 1.269773 14 116.486806 12 -10.700849 0
C  3 1.562294 2 113.541009 1 107.555812 0
H  39 1.098286 3 108.755401 2 -144.228433 0
H  39 1.102740 3 107.048356 2 99.504073 0
C  39 1.527022 3 121.218015 2 -18.712777 0
O  42 1.250150 39 120.173421 3 -147.617116 0
N  42 1.345869 39 116.407824 3 40.267007 0
H  44 1.024452 42 117.500612 39 -11.004977 0
C  44 1.453900 42 125.405365 39 163.672076 0
H  46 1.105644 44 108.317510 42 -44.217179 0
C  46 1.540905 44 113.584888 42 74.355901 0
H  48 1.102138 46 107.445791 44 -177.395935 0
H  48 1.102745 46 107.738912 44 -61.590470 0
C  48 1.532396 46 113.654520 44 59.309695 0
H  51 1.102236 48 107.439089 46 -40.976769 0
H  51 1.103314 48 110.431825 46 74.123754 0
C  51 1.541573 48 112.554316 46 -161.674842 0
H  54 1.102918 51 108.362358 48 22.949801 0
H  54 1.103202 51 111.553297 48 -93.262877 0
C  54 1.539388 51 114.451419 48 143.428844 0
H  57 1.096706 54 112.180026 51 74.444286 0
H  57 1.100601 54 110.827928 51 -164.645558 0
N  57 1.476923 54 111.916420 51 -42.142704 0
C  60 1.346449 57 124.002308 54 -47.973039 0
O  61 1.261625 60 118.330212 57 148.602623 0
O  60 1.371899 57 113.368907 54 100.097422 0
C  61 1.502489 60 120.660075 57 -34.395099 0
H  64 1.096779 61 113.223752 60 -4.532689 0
H  64 1.100304 61 109.069652 60 118.020297 0
H  64 1.101010 61 107.848210 60 -125.418042 0
C  46 1.557402 44 109.198634 42 -160.906526 0
O  68 1.259796 46 115.610041 44 -179.485703 0
O  68 1.268636 46 117.142230 44 0.277113 0
$end

 -----------------------------------------------------------------------
                  END OF GEOMETRY OPTIMIZER USING LIBOPT3               
 -----------------------------------------------------------------------
 Total job time:  823527.86s(wall), 1628212.16s(cpu) 
 Sat Jun  1 01:15:20 2024

        *************************************************************
        *                                                           *
        *  Thank you very much for using Q-Chem.  Have a nice day.  *
        *                                                           *
        *************************************************************


