
Running Job 1 of 1 C_FeABO_ctL_3sextet_SfS_camb3lyp_augccpDVZ_pcmH2O_tddft100.in
qchem C_FeABO_ctL_3sextet_SfS_camb3lyp_augccpDVZ_pcmH2O_tddft100.in_2472058.0 /data/scratch/C_FeABO_ctL_3sextet_SfS_camb3lyp_augccpDVZ_pcmH2O_tddft10020230814142115/ 0
/opt/qchem/6.0.1/exe/qcprog.exe_s C_FeABO_ctL_3sextet_SfS_camb3lyp_augccpDVZ_pcmH2O_tddft100.in_2472058.0 /data/scratch/C_FeABO_ctL_3sextet_SfS_camb3lyp_augccpDVZ_pcmH2O_tddft10020230814142115/
                  Welcome to Q-Chem
     A Quantum Leap Into The Future Of Chemistry


 Q-Chem 6.0, Q-Chem, Inc., Pleasanton, CA (2022)

 E. Epifanovsky,  A. T. B. Gilbert,  Xintian Feng,  Joonho Lee,  Yuezhi Mao,  
 N. Mardirossian,  P. Pokhilko,  A. White,  M. Wormit,  M. P. Coons,  
 A. L. Dempwolff,  Zhengting Gan,  D. Hait,  P. R. Horn,  L. D. Jacobson,  
 I. Kaliman,  J. Kussmann,  A. W. Lange,  Ka Un Lao,  D. S. Levine,  Jie Liu,  
 S. C. McKenzie,  A. F. Morrison,  K. Nanda,  F. Plasser,  D. R. Rehn,  
 M. L. Vidal,  Zhi-Qiang You,  Ying Zhu,  B. Alam,  B. Albrecht,  
 A. Aldossary,  E. Alguire,  J. H. Andersen,  V. Athavale,  D. Barton,  
 K. Begam,  A. Behn,  N. Bellonzi,  Y. A. Bernard,  E. J. Berquist,  
 H. Burton,  A. Carreras,  K. Carter-Fenk,  Romit Chakraborty,  
 Chandrima Chakravarty,  Junhan Chen,  A. D. Chien,  K. D. Closser,  
 V. Cofer-Shabica,  L. Cunha,  S. Dasgupta,  Jia Deng,  M. de Wergifosse,  
 M. Diedenhofen,  Hainam Do,  S. Ehlert,  Po-Tung Fang,  S. Fatehi,  
 Qingguo Feng,  T. Friedhoff,  B. Ganoe,  J. Gayvert,  Qinghui Ge,  
 G. Gidofalvi,  M. Goldey,  J. Gomes,  C. Gonzalez-Espinoza,  S. Gulania,  
 A. Gunina,  J. A. Gyamfi,  M. W. D. Hanson-Heine,  P. H. P. Harbach,  
 A. W. Hauser,  M. F. Herbst,  M. Hernandez Vera,  M. Hodecker,  
 Z. C. Holden,  S. Houck,  Xunkun Huang,  Kerwin Hui,  B. C. Huynh,  
 K. Ikeda,  M. Ivanov,  Hyunjun Ji,  Zuxin Jin,  Hanjie Jiang,  B. Kaduk,  
 S. Kaehler,  R. Kang,  K. Khistyaev,  Jaehoon Kim,  Yongbin Kim,  
 P. Klunzinger,  Z. Koczor-Benda,  Joong Hoon Koh,  D. Kosenkov,  
 Saikiran Kotaru,  L. Koulias,  T. Kowalczyk,  C. M. Krauter,  K. Kue,  
 A. Kunitsa,  T. Kus,  A. Landau,  K. V. Lawler,  D. Lefrancois,  S. Lehtola,  
 Rain Li,  Shaozhi Li,  Yi-Pei Li,  Jiashu Liang,  M. Liebenthal,  
 Hung-Hsuan Lin,  You-Sheng Lin,  Fenglai Liu,  Kuan-Yu Liu,  
 M. Loipersberger,  A. Luenser,  C. Malbon,  A. Manjanath,  P. Manohar,  
 E. Mansoor,  S. F. Manzer,  Shan-Ping Mao,  A. V. Marenich,  T. Markovich,  
 S. Mason,  F. Matz,  S. A. Maurer,  P. F. McLaughlin,  M. F. S. J. Menger,  
 J.-M. Mewes,  S. A. Mewes,  P. Morgante,  Mohammad Mostafanejad,  
 J. W. Mullinax,  K. J. Oosterbaan,  G. Paran,  V. Parravicini,  
 Alexander C. Paul,  Suranjan K. Paul,  F. Pavosevic,  Zheng Pei,  S. Prager,  
 E. I. Proynov,  E. Ramos,  B. Rana,  A. E. Rask,  A. Rettig,  R. M. Richard,  
 F. Rob,  E. Rossomme,  T. Scheele,  M. Scheurer,  M. Schneider,  
 P. E. Schneider,  N. Sergueev,  S. M. Sharada,  Hengyuan Shen,  
 W. Skomorowski,  D. W. Small,  C. J. Stein,  Yingli Su,  Yu-Chuan Su,  
 E. J. Sundstrom,  Zhen Tao,  J. Thirman,  Hung-Yi Tsai,  T. Tsuchimochi,  
 N. M. Tubman,  C. Utku,  S. P. Veccham,  O. Vydrov,  J. Wenzel,  
 Jonathan Wong,  J. Witte,  A. Yamada,  Chou-Hsun Yang,  Kun Yao,  
 S. Yeganeh,  S. R. Yost,  A. Zech,  F. Zeller,  Igor Ying Zhang,  
 Xing Zhang,  Yu Zhang,  D. Zuev,  A. Aspuru-Guzik,  A. T. Bell,  
 N. A. Besley,  K. B. Bravaya,  B. R. Brooks,  D. Casanova,  Jeng-Da Chai,  
 Hsing-Ta Chen,  S. Coriani,  C. J. Cramer,  A. E. DePrince, III,  
 R. A. DiStasio Jr.,  A. Dreuw,  B. D. Dunietz,  T. R. Furlani,  
 W. A. Goddard III,  S. Grimme,  S. Hammes-Schiffer,  T. Head-Gordon,  
 W. J. Hehre,  Chao-Ping Hsu,  T.-C. Jagau,  Yousung Jung,  A. Klamt,  
 Jing Kong,  D. S. Lambrecht,  Xiangyuan Li,  WanZhen Liang,  N. J. Mayhall,  
 C. W. McCurdy,  J. B. Neaton,  T. Neudecker,  C. Ochsenfeld,  
 J. A. Parkhill,  R. Peverati,  V. A. Rassolov,  Haisheng Ren,  Yihan Shao,  
 L. V. Slipchenko,  R. P. Steele,  J. E. Subotnik,  A. J. W. Thom,  
 A. Tkatchenko,  D. G. Truhlar,  T. Van Voorhis,  Fan Wang,  
 T. A. Wesolowski,  K. B. Whaley,  H. L. Woodcock III,  P. M. Zimmerman,  
 S. Faraji,  P. M. W. Gill,  M. Head-Gordon,  J. M. Herbert,  A. I. Krylov

 Contributors to earlier versions of Q-Chem not listed above: 
 R. D. Adamson,  B. Austin,  R. Baer,  J. Baker,  G. J. O. Beran,  
 K. Brandhorst,  S. T. Brown,  E. F. C. Byrd,  Arup K. Chakraborty,  
 G. K. L. Chan,  Chun-Min Chang,  Yunqing Chen,  C.-L. Cheng,  
 Siu Hung Chien,  D. M. Chipman,  D. L. Crittenden,  H. Dachsel,  
 R. J. Doerksen,  A. D. Dutoi,  R. G. Edgar,  J. Fosso-Tande,  
 L. Fusti-Molnar,  D. Ghosh,  A. Ghysels,  A. Golubeva-Zadorozhnaya,  
 J. Gonthier,  M. S. Gordon,  S. R. Gwaltney,  G. Hawkins,  J. E. Herr,  
 A. Heyden,  S. Hirata,  E. G. Hohenstein,  G. Kedziora,  F. J. Keil,  
 C. Kelley,  Jihan Kim,  R. A. King,  R. Z. Khaliullin,  P. P. Korambath,  
 W. Kurlancheek,  A. Laurent,  A. M. Lee,  M. S. Lee,  S. V. Levchenko,  
 Ching Yeh Lin,  D. Liotard,  E. Livshits,  R. C. Lochan,  I. Lotan,  
 L. A. Martinez-Martinez,  P. E. Maslen,  N. Nair,  D. P. O'Neill,  
 D. Neuhauser,  E. Neuscamman,  C. M. Oana,  R. Olivares-Amaya,  R. Olson,  
 T. M. Perrine,  B. Peters,  P. A. Pieniazek,  A. Prociuk,  Y. M. Rhee,  
 J. Ritchie,  M. A. Rohrdanz,  E. Rosta,  N. J. Russ,  H. F. Schaefer III,  
 M. W. Schmidt,  N. E. Schultz,  S. Sharma,  N. Shenvi,  C. D. Sherrill,  
 A. C. Simmonett,  A. Sodt,  T. Stein,  D. Stuck,  K. S. Thanthiriwatte,  
 V. Vanovschi,  L. Vogt,  Tao Wang,  A. Warshel,  M. A. Watson,  
 C. F. Williams,  Q. Wu,  X. Xu,  Jun Yang,  W. Zhang,  Yan Zhao

   Please cite Q-Chem as follows:
  "Software for the frontiers of quantum chemistry:
   An overview of developments in the Q-Chem 5 package"
   J. Chem. Phys. 155, 084801 (2021)
   https://doi.org/10.1063/5.0055522 (open access)

 Q-Chem 6.0.2 for Intel X86 EM64T Linux

 Parts of Q-Chem use Armadillo 9.900.5 (Nocturnal Misbehaviour).
 http://arma.sourceforge.net/

 Q-Chem begins on Mon Aug 14 14:21:16 2023  

 Host: 
0

     Scratch files written to /data/scratch/C_FeABO_ctL_3sextet_SfS_camb3lyp_augccpDVZ_pcmH2O_tddft10020230814142115//
 Dec722 |scratch|qcdevops|jenkins|workspace|build_RNUM 8907   
 Processing $rem in /opt/qchem/6.0.1/config/preferences:
 Processing $rem in /home/sgardner/.qchemrc:
 Symmetry turned off for PCM/SM12/SMD calculation

 Checking the input file for inconsistencies... 	...done.

--------------------------------------------------------------
User input:
--------------------------------------------------------------
$molecule
-3 6
N   -2.6690461    2.6220600    0.7742126
C   -4.1030210   -1.7871287   -0.7353220
H   -4.8113114   -2.3827663   -0.1312774
N   -2.7509547   -2.0627018   -0.2748885
H   -2.1601995   -2.4160716   -1.0265919
C   -4.2198782   -2.2697574   -2.2130859
O   -5.3568055   -2.1576245   -2.7365686
C   -2.3546707   -2.1196453    1.0117121
O   -3.0996645   -1.8138143    1.9596237
C   -1.8782082    3.6231146    1.1629468
C   -2.3422298    5.0514036    1.0426881
H   -3.3233995    5.2077668    1.5141775
H   -1.6004398    5.6947433    1.5316735
H   -2.4225889    5.3452428   -0.0161421
C   -0.9337010   -2.6112806    1.2369945
H   -0.5737005   -3.1822230    0.3716409
H   -0.9491270   -3.2647717    2.1208736
C    0.0909601   -1.4756287    1.4815707
C   -0.1466659   -0.7735466    2.8544679
C    1.5149764   -2.0811872    1.6483694
H    1.4591086   -2.9098391    2.3738019
H    2.1619366   -1.3109350    2.0947772
C    2.2000770   -2.6013996    0.3911214
O    1.6200691   -3.2187302   -0.5167362
N    3.5248573   -2.3525938    0.3698826
H    3.9999744   -1.9232441    1.1645975
C    5.8972469   -2.7509174   -0.0030296
O    6.8102407   -3.3003362   -0.6659706
N    1.9392445    2.1684635   -0.7117912
C    0.8817990    2.2546384   -1.5250812
C    1.0650735    2.5248237   -2.9920973
H    1.9900927    3.0694200   -3.2170616
H    1.0756428    1.5718446   -3.5465060
H    0.2019121    3.1072279   -3.3425688
C    3.2675959    1.7319359   -1.1580931
H    3.9611386    1.9762990   -0.3412017
H    3.5672697    2.3138996   -2.0408677
C    3.2289438    0.2292886   -1.4365021
H    2.7263052   -0.2362436   -0.5801072
H    2.5851271    0.0518155   -2.3160095
C    4.5848018   -0.4331087   -1.6770763
H    5.0707007    0.0398102   -2.5485316
H    5.2481677   -0.2526069   -0.8124426
C    4.4532768   -1.9487401   -1.9216780
H    3.5261543   -2.1502102   -2.4848362
H    5.2917680   -2.3115186   -2.5357969
C    4.4716335   -2.8007420   -0.6347118
H    4.2482973   -3.8443209   -0.9116821
C   -4.0539217    2.1341057   -1.2558950
H   -3.3967754    2.7542582   -1.8895921
H   -5.0870851    2.3088908   -1.6077595
C   -3.9967025    2.6835797    0.1780511
H   -4.6766981    2.1190139    0.8364633
H   -4.3249475    3.7302065    0.1828261
C   -3.6924613    0.6521217   -1.4516339
H   -2.6278431    0.5067172   -1.2283302
H   -3.8456847    0.4111094   -2.5189139
C   -4.5187401   -0.3109460   -0.5990810
H   -4.4347148   -0.0405253    0.4619823
H   -5.5820359   -0.2469382   -0.8843014
O   -3.1666517   -2.7130604   -2.7533677
O    6.0068692   -2.1356166    1.0970822
O    0.0487168   -0.5408541    0.4454979
Fe   -0.2063076    1.2903564    0.9434683
O   -0.0711938    0.5268847    2.8145987
O   -2.1851273    1.3621873    0.9376298
O   -0.7219003    3.3431734    1.6120716
O    1.6858385    1.8990174    0.6090867
O   -0.3040505   -1.4319617    3.8871614
O   -0.2845024    2.1088518   -1.0451670
$end

$rem
BASIS  =  gen
CIS_N_ROOTS  =  100
EXCHANGE  =  CAM-B3LYP
GUI  =  2
JOB_TYPE  =  SP
NTO_PAIRS  =  2
SCF_CONVERGENCE  =  8
SOLVENT_METHOD  =  PCM
UNRESTRICTED  =  1
BASIS GEN
PURECART 11
$end

$pcm
THEORY  CPCM
$end

$solvent
DIELECTRIC  78.39
$end

$van_der_waals
26   2.44
$end

!----------------------------------------------------------------------
! Basis Set Exchange
! Basis set: aug-cc-pVDZ
!----------------------------------------------------------------------

$basis
H     0
S   4   1.00
1.301000D+01           1.968500D-02
1.962000D+00           1.379770D-01
4.446000D-01           4.781480D-01
1.220000D-01           5.012400D-01
S   1   1.00
1.220000D-01           1.000000D+00
S   1   1.00
0.0297400              1.0000000
P   1   1.00
7.270000D-01           1.0000000
P   1   1.00
0.1410000              1.0000000
****
C     0
S   9   1.00
6.665000D+03           6.920000D-04
1.000000D+03           5.329000D-03
2.280000D+02           2.707700D-02
6.471000D+01           1.017180D-01
2.106000D+01           2.747400D-01
7.495000D+00           4.485640D-01
2.797000D+00           2.850740D-01
5.215000D-01           1.520400D-02
1.596000D-01          -3.191000D-03
S   9   1.00
6.665000D+03          -1.460000D-04
1.000000D+03          -1.154000D-03
2.280000D+02          -5.725000D-03
6.471000D+01          -2.331200D-02
2.106000D+01          -6.395500D-02
7.495000D+00          -1.499810D-01
2.797000D+00          -1.272620D-01
5.215000D-01           5.445290D-01
1.596000D-01           5.804960D-01
S   1   1.00
1.596000D-01           1.000000D+00
S   1   1.00
0.0469000              1.0000000
P   4   1.00
9.439000D+00           3.810900D-02
2.002000D+00           2.094800D-01
5.456000D-01           5.085570D-01
1.517000D-01           4.688420D-01
P   1   1.00
1.517000D-01           1.000000D+00
P   1   1.00
0.0404100              1.0000000
D   1   1.00
5.500000D-01           1.0000000
D   1   1.00
0.1510000              1.0000000
****
N     0
S   9   1.00
9.046000D+03           7.000000D-04
1.357000D+03           5.389000D-03
3.093000D+02           2.740600D-02
8.773000D+01           1.032070D-01
2.856000D+01           2.787230D-01
1.021000D+01           4.485400D-01
3.838000D+00           2.782380D-01
7.466000D-01           1.544000D-02
2.248000D-01          -2.864000D-03
S   9   1.00
9.046000D+03          -1.530000D-04
1.357000D+03          -1.208000D-03
3.093000D+02          -5.992000D-03
8.773000D+01          -2.454400D-02
2.856000D+01          -6.745900D-02
1.021000D+01          -1.580780D-01
3.838000D+00          -1.218310D-01
7.466000D-01           5.490030D-01
2.248000D-01           5.788150D-01
S   1   1.00
2.248000D-01           1.000000D+00
S   1   1.00
0.0612400              1.0000000
P   4   1.00
1.355000D+01           3.991900D-02
2.917000D+00           2.171690D-01
7.973000D-01           5.103190D-01
2.185000D-01           4.622140D-01
P   1   1.00
2.185000D-01           1.000000D+00
P   1   1.00
0.0561100              1.0000000
D   1   1.00
8.170000D-01           1.0000000
D   1   1.00
0.2300000              1.0000000
****
O     0
S   9   1.00
1.172000D+04           7.100000D-04
1.759000D+03           5.470000D-03
4.008000D+02           2.783700D-02
1.137000D+02           1.048000D-01
3.703000D+01           2.830620D-01
1.327000D+01           4.487190D-01
5.025000D+00           2.709520D-01
1.013000D+00           1.545800D-02
3.023000D-01          -2.585000D-03
S   9   1.00
1.172000D+04          -1.600000D-04
1.759000D+03          -1.263000D-03
4.008000D+02          -6.267000D-03
1.137000D+02          -2.571600D-02
3.703000D+01          -7.092400D-02
1.327000D+01          -1.654110D-01
5.025000D+00          -1.169550D-01
1.013000D+00           5.573680D-01
3.023000D-01           5.727590D-01
S   1   1.00
3.023000D-01           1.000000D+00
S   1   1.00
0.0789600              1.0000000
P   4   1.00
1.770000D+01           4.301800D-02
3.854000D+00           2.289130D-01
1.046000D+00           5.087280D-01
2.753000D-01           4.605310D-01
P   1   1.00
2.753000D-01           1.000000D+00
P   1   1.00
0.0685600              1.0000000
D   1   1.00
1.185000D+00           1.0000000
D   1   1.00
0.3320000              1.0000000
****
Fe     0
S   20   1.00
4.316265D+06           8.048803D-06
6.463424D+05           6.258306D-05
1.470897D+05           3.290239D-04
4.166152D+04           1.387355D-03
1.359077D+04           5.023256D-03
4.905750D+03           1.610140D-02
1.912746D+03           4.590034D-02
7.926043D+02           1.136154D-01
3.448065D+02           2.283869D-01
1.558999D+02           3.221159D-01
7.223091D+01           2.383661D-01
3.272506D+01           7.404667D-02
1.566762D+01           9.214197D-02
7.503483D+00           9.339790D-02
3.312223D+00           1.573965D-02
1.558471D+00          -4.186682D-04
6.839140D-01           5.376318D-05
1.467570D-01          -3.816654D-05
7.058300D-02           4.319603D-05
3.144900D-02          -3.401019D-06
S   20   1.00
4.316265D+06          -4.155954D-06
6.463424D+05          -3.231401D-05
1.470897D+05          -1.699525D-04
4.166152D+04          -7.171369D-04
1.359077D+04          -2.603625D-03
4.905750D+03          -8.399109D-03
1.912746D+03          -2.434109D-02
7.926043D+02          -6.251948D-02
3.448065D+02          -1.365929D-01
1.558999D+02          -2.312707D-01
7.223091D+01          -2.383734D-01
3.272506D+01           3.123837D-02
1.566762D+01           5.086818D-01
7.503483D+00           4.987695D-01
3.312223D+00           9.033552D-02
1.558471D+00          -6.005337D-03
6.839140D-01           2.312454D-04
1.467570D-01          -5.643680D-04
7.058300D-02           4.992260D-04
3.144900D-02          -1.015293D-04
S   20   1.00
4.316265D+06           9.532178D-07
6.463424D+05           7.414605D-06
1.470897D+05           3.898393D-05
4.166152D+04           1.647152D-04
1.359077D+04           5.985980D-04
4.905750D+03           1.942390D-03
1.912746D+03           5.687237D-03
7.926043D+02           1.501329D-02
3.448065D+02           3.452455D-02
1.558999D+02           6.495820D-02
7.223091D+01           7.716194D-02
3.272506D+01          -1.873411D-02
1.566762D+01          -3.009185D-01
7.503483D+00          -4.554661D-01
3.312223D+00           1.286463D-01
1.558471D+00           7.183316D-01
6.839140D-01           4.051743D-01
1.467570D-01           2.168227D-02
7.058300D-02          -8.343566D-03
3.144900D-02           3.658979D-03
S   20   1.00
4.316265D+06          -2.063008D-07
6.463424D+05          -1.604169D-06
1.470897D+05          -8.438437D-06
4.166152D+04          -3.563151D-05
1.359077D+04          -1.295998D-04
4.905750D+03          -4.201534D-04
1.912746D+03          -1.231954D-03
7.926043D+02          -3.248922D-03
3.448065D+02          -7.493717D-03
1.558999D+02          -1.410102D-02
7.223091D+01          -1.691600D-02
3.272506D+01           4.218996D-03
1.566762D+01           6.833810D-02
7.503483D+00           1.098201D-01
3.312223D+00          -4.009005D-02
1.558471D+00          -2.174739D-01
6.839140D-01          -2.465135D-01
1.467570D-01           2.731435D-01
7.058300D-02           5.748321D-01
3.144900D-02           3.012713D-01
S   20   1.00
4.316265D+06          -4.009367D-07
6.463424D+05          -3.189255D-06
1.470897D+05          -1.623079D-05
4.166152D+04          -7.157920D-05
1.359077D+04          -2.463958D-04
4.905750D+03          -8.544907D-04
1.912746D+03          -2.307593D-03
7.926043D+02          -6.728292D-03
3.448065D+02          -1.366165D-02
1.558999D+02          -3.062240D-02
7.223091D+01          -2.631137D-02
3.272506D+01          -9.760183D-03
1.566762D+01           1.801906D-01
7.503483D+00           1.529634D-01
3.312223D+00           5.505413D-02
1.558471D+00          -9.551364D-01
6.839140D-01           2.586813D-01
1.467570D-01           1.834049D+00
7.058300D-02          -9.333240D-01
3.144900D-02          -6.981605D-01
S   1   1.00
3.144900D-02           1.000000D+00
S   1   1.00
1.401000D-02           1.000000D+00
P   16   1.00
1.774569D+04           4.100000D-05
4.200721D+03           3.690000D-04
1.364429D+03           2.129000D-03
5.220806D+02           9.369000D-03
2.214595D+02           3.309700D-02
1.009096D+02           9.443100D-02
4.840115D+01           2.080770D-01
2.398536D+01           3.323330D-01
1.218250D+01           3.329870D-01
6.242298D+00           1.568430D-01
3.110944D+00           2.154900D-02
1.509958D+00          -2.095000D-03
7.108450D-01          -1.739000D-03
2.731900D-01          -3.000000D-04
1.042330D-01           2.900000D-05
3.829100D-02          -1.100000D-05
P   16   1.00
1.774569D+04          -1.500000D-05
4.200721D+03          -1.300000D-04
1.364429D+03          -7.510000D-04
5.220806D+02          -3.329000D-03
2.214595D+02          -1.191200D-02
1.009096D+02          -3.493300D-02
4.840115D+01          -7.998900D-02
2.398536D+01          -1.346360D-01
1.218250D+01          -1.385980D-01
6.242298D+00           3.027800D-02
3.110944D+00           3.332160D-01
1.509958D+00           4.561530D-01
7.108450D-01           2.850510D-01
2.731900D-01           4.614400D-02
1.042330D-01          -3.249000D-03
3.829100D-02           1.357000D-03
P   16   1.00
1.774569D+04           5.000000D-06
4.200721D+03           4.200000D-05
1.364429D+03           2.410000D-04
5.220806D+02           1.085000D-03
2.214595D+02           3.831000D-03
1.009096D+02           1.142300D-02
4.840115D+01           2.579200D-02
2.398536D+01           4.481800D-02
1.218250D+01           4.459800D-02
6.242298D+00          -1.117700D-02
3.110944D+00          -1.381340D-01
1.509958D+00          -1.882850D-01
7.108450D-01          -1.073990D-01
2.731900D-01           4.448630D-01
1.042330D-01           6.402390D-01
3.829100D-02           6.445700D-02
P   16   1.00
1.774569D+04           3.000000D-06
4.200721D+03           2.900000D-05
1.364429D+03           1.650000D-04
5.220806D+02           7.340000D-04
2.214595D+02           2.626000D-03
1.009096D+02           7.725000D-03
4.840115D+01           1.773300D-02
2.398536D+01           3.005500D-02
1.218250D+01           3.109400D-02
6.242298D+00          -1.004800D-02
3.110944D+00          -8.830600D-02
1.509958D+00          -1.298240D-01
7.108450D-01          -7.693700D-02
2.731900D-01           2.126610D-01
1.042330D-01           5.730610D-01
3.829100D-02           3.696510D-01
P   1   1.00
3.829100D-02           1.000000D+00
P   1   1.00
1.407000D-02           1.000000D+00
D   8   1.00
1.133440D+02           3.530000D-03
3.364140D+01           2.578400D-02
1.233100D+01           9.911900D-02
4.994780D+00           2.390730D-01
2.072800D+00           3.571990D-01
8.307530D-01           3.621880D-01
3.091780D-01           2.364610D-01
1.001300D-01           6.011800D-02
D   8   1.00
1.133440D+02          -3.890000D-03
3.364140D+01          -2.844200D-02
1.233100D+01          -1.124290D-01
4.994780D+00          -2.742570D-01
2.072800D+00          -3.155460D-01
8.307530D-01           5.710900D-02
3.091780D-01           5.636040D-01
1.001300D-01           3.846370D-01
D   1   1.00
1.001300D-01           1.000000D+00
D   1   1.00
3.243000D-02           1.000000D+00
F   2   1.00
3.224300D+00           4.222490D-01
7.758000D-01           7.714680D-01
F   1   1.00
2.749000D-01           1.000000D+00
****
$end


--------------------------------------------------------------
 ----------------------------------------------------------------
             Standard Nuclear Orientation (Angstroms)
    I     Atom           X                Y                Z
 ----------------------------------------------------------------
    1      N      -2.6690461000     2.6220600000     0.7742126000
    2      C      -4.1030210000    -1.7871287000    -0.7353220000
    3      H      -4.8113114000    -2.3827663000    -0.1312774000
    4      N      -2.7509547000    -2.0627018000    -0.2748885000
    5      H      -2.1601995000    -2.4160716000    -1.0265919000
    6      C      -4.2198782000    -2.2697574000    -2.2130859000
    7      O      -5.3568055000    -2.1576245000    -2.7365686000
    8      C      -2.3546707000    -2.1196453000     1.0117121000
    9      O      -3.0996645000    -1.8138143000     1.9596237000
   10      C      -1.8782082000     3.6231146000     1.1629468000
   11      C      -2.3422298000     5.0514036000     1.0426881000
   12      H      -3.3233995000     5.2077668000     1.5141775000
   13      H      -1.6004398000     5.6947433000     1.5316735000
   14      H      -2.4225889000     5.3452428000    -0.0161421000
   15      C      -0.9337010000    -2.6112806000     1.2369945000
   16      H      -0.5737005000    -3.1822230000     0.3716409000
   17      H      -0.9491270000    -3.2647717000     2.1208736000
   18      C       0.0909601000    -1.4756287000     1.4815707000
   19      C      -0.1466659000    -0.7735466000     2.8544679000
   20      C       1.5149764000    -2.0811872000     1.6483694000
   21      H       1.4591086000    -2.9098391000     2.3738019000
   22      H       2.1619366000    -1.3109350000     2.0947772000
   23      C       2.2000770000    -2.6013996000     0.3911214000
   24      O       1.6200691000    -3.2187302000    -0.5167362000
   25      N       3.5248573000    -2.3525938000     0.3698826000
   26      H       3.9999744000    -1.9232441000     1.1645975000
   27      C       5.8972469000    -2.7509174000    -0.0030296000
   28      O       6.8102407000    -3.3003362000    -0.6659706000
   29      N       1.9392445000     2.1684635000    -0.7117912000
   30      C       0.8817990000     2.2546384000    -1.5250812000
   31      C       1.0650735000     2.5248237000    -2.9920973000
   32      H       1.9900927000     3.0694200000    -3.2170616000
   33      H       1.0756428000     1.5718446000    -3.5465060000
   34      H       0.2019121000     3.1072279000    -3.3425688000
   35      C       3.2675959000     1.7319359000    -1.1580931000
   36      H       3.9611386000     1.9762990000    -0.3412017000
   37      H       3.5672697000     2.3138996000    -2.0408677000
   38      C       3.2289438000     0.2292886000    -1.4365021000
   39      H       2.7263052000    -0.2362436000    -0.5801072000
   40      H       2.5851271000     0.0518155000    -2.3160095000
   41      C       4.5848018000    -0.4331087000    -1.6770763000
   42      H       5.0707007000     0.0398102000    -2.5485316000
   43      H       5.2481677000    -0.2526069000    -0.8124426000
   44      C       4.4532768000    -1.9487401000    -1.9216780000
   45      H       3.5261543000    -2.1502102000    -2.4848362000
   46      H       5.2917680000    -2.3115186000    -2.5357969000
   47      C       4.4716335000    -2.8007420000    -0.6347118000
   48      H       4.2482973000    -3.8443209000    -0.9116821000
   49      C      -4.0539217000     2.1341057000    -1.2558950000
   50      H      -3.3967754000     2.7542582000    -1.8895921000
   51      H      -5.0870851000     2.3088908000    -1.6077595000
   52      C      -3.9967025000     2.6835797000     0.1780511000
   53      H      -4.6766981000     2.1190139000     0.8364633000
   54      H      -4.3249475000     3.7302065000     0.1828261000
   55      C      -3.6924613000     0.6521217000    -1.4516339000
   56      H      -2.6278431000     0.5067172000    -1.2283302000
   57      H      -3.8456847000     0.4111094000    -2.5189139000
   58      C      -4.5187401000    -0.3109460000    -0.5990810000
   59      H      -4.4347148000    -0.0405253000     0.4619823000
   60      H      -5.5820359000    -0.2469382000    -0.8843014000
   61      O      -3.1666517000    -2.7130604000    -2.7533677000
   62      O       6.0068692000    -2.1356166000     1.0970822000
   63      O       0.0487168000    -0.5408541000     0.4454979000
   64      Fe     -0.2063076000     1.2903564000     0.9434683000
   65      O      -0.0711938000     0.5268847000     2.8145987000
   66      O      -2.1851273000     1.3621873000     0.9376298000
   67      O      -0.7219003000     3.3431734000     1.6120716000
   68      O       1.6858385000     1.8990174000     0.6090867000
   69      O      -0.3040505000    -1.4319617000     3.8871614000
   70      O      -0.2845024000     2.1088518000    -1.0451670000
 ----------------------------------------------------------------
 Nuclear Repulsion Energy =        6047.25106075 hartrees
 There are      164 alpha and      159 beta electrons
 Requested basis set is non-standard
 There are 520 shells and 1226 basis functions

 Total QAlloc Memory Limit   8000 MB
 Mega-Array Size       188 MB
 MEM_STATIC part       192 MB

 Using C-PCM dielectric factor f(eps) = (eps-1)/eps = 0.987243
No default van der Waals radius is available for Z = 26
	Found R = 2.4400 A in the $van_der_waals section
 Discretize the solute cavity surface with Lebedev spheres
	Using 110 Lebedev grid points for each H atom
	Using 194 Lebedev grid points for other atoms
	Atomic van der Waals radii (Bondi set) will be scaled by 1.20
 Using smooth SwiG surface discretization
 Remove points where switching function is < 1.0e-08
 Keep 4148 surface tesserae and discard 6912 interior tesserae
 Molecular Surface Area = 533.374 Angst**2

 A cutoff of  1.0D-12 yielded 118730 shell pairs
 There are    628224 function pairs (    715556 Cartesian)
 Smallest overlap matrix eigenvalue = 1.01E-06

 Scale SEOQF with 1.000000e-02/1.000000e-02/1.000000e-01

 Standard Electronic Orientation quadrupole field applied
 Nucleus-field energy     =    -0.0000000650 hartrees
 ================ Generating on-the-fly SAD Guess ================
 Attempting to make child job directory: /data/scratch/C_FeABO_ctL_3sextet_SfS_camb3lyp_augccpDVZ_pcmH2O_tddft10020230814142115//Frg1/
 Attempting to make child job directory: /data/scratch/C_FeABO_ctL_3sextet_SfS_camb3lyp_augccpDVZ_pcmH2O_tddft10020230814142115//Frg2/
 Attempting to make child job directory: /data/scratch/C_FeABO_ctL_3sextet_SfS_camb3lyp_augccpDVZ_pcmH2O_tddft10020230814142115//Frg3/
 Attempting to make child job directory: /data/scratch/C_FeABO_ctL_3sextet_SfS_camb3lyp_augccpDVZ_pcmH2O_tddft10020230814142115//Frg4/
 Attempting to make child job directory: /data/scratch/C_FeABO_ctL_3sextet_SfS_camb3lyp_augccpDVZ_pcmH2O_tddft10020230814142115//Frg5/
 Creating input file /data/scratch/C_FeABO_ctL_3sextet_SfS_camb3lyp_augccpDVZ_pcmH2O_tddft10020230814142115/Frg1.input
 using default PutDataFrgm: nothing
 calling putenv with: QCSCRATCH=/data/scratch/C_FeABO_ctL_3sextet_SfS_camb3lyp_augccpDVZ_pcmH2O_tddft10020230814142115/ 
 Spawning Job For Fragment 0
 Done Job For Fragment 0
 calling putenv with: QCSCRATCH=/data/scratch 
 calling putenv with: QCTHREADS=20 
 Creating input file /data/scratch/C_FeABO_ctL_3sextet_SfS_camb3lyp_augccpDVZ_pcmH2O_tddft10020230814142115/Frg2.input
 using default PutDataFrgm: nothing
 calling putenv with: QCSCRATCH=/data/scratch/C_FeABO_ctL_3sextet_SfS_camb3lyp_augccpDVZ_pcmH2O_tddft10020230814142115/ 
 Spawning Job For Fragment 1
 Done Job For Fragment 1
 calling putenv with: QCSCRATCH=/data/scratch 
 calling putenv with: QCTHREADS=20 
 Creating input file /data/scratch/C_FeABO_ctL_3sextet_SfS_camb3lyp_augccpDVZ_pcmH2O_tddft10020230814142115/Frg3.input
 using default PutDataFrgm: nothing
 calling putenv with: QCSCRATCH=/data/scratch/C_FeABO_ctL_3sextet_SfS_camb3lyp_augccpDVZ_pcmH2O_tddft10020230814142115/ 
 Spawning Job For Fragment 2
 Done Job For Fragment 2
 calling putenv with: QCSCRATCH=/data/scratch 
 calling putenv with: QCTHREADS=20 
 Creating input file /data/scratch/C_FeABO_ctL_3sextet_SfS_camb3lyp_augccpDVZ_pcmH2O_tddft10020230814142115/Frg4.input
 using default PutDataFrgm: nothing
 calling putenv with: QCSCRATCH=/data/scratch/C_FeABO_ctL_3sextet_SfS_camb3lyp_augccpDVZ_pcmH2O_tddft10020230814142115/ 
 Spawning Job For Fragment 3
 Done Job For Fragment 3
 calling putenv with: QCSCRATCH=/data/scratch 
 calling putenv with: QCTHREADS=20 
 Creating input file /data/scratch/C_FeABO_ctL_3sextet_SfS_camb3lyp_augccpDVZ_pcmH2O_tddft10020230814142115/Frg5.input
 using default PutDataFrgm: nothing
 calling putenv with: QCSCRATCH=/data/scratch/C_FeABO_ctL_3sextet_SfS_camb3lyp_augccpDVZ_pcmH2O_tddft10020230814142115/ 
 Spawning Job For Fragment 4
 Done Job For Fragment 4
 calling putenv with: QCSCRATCH=/data/scratch 
 calling putenv with: QCTHREADS=20 
 Time for running child jobs:  CPU 0.02 s  wall 81.42 s
 ============= Method Specific SAD Guess Constructed =============
 Guess from on-the-fly superposition of atomic densities
 Warning: Energy on first SCF cycle will be non-variational

 -----------------------------------------------------------------------
  General SCF calculation program by
  Eric Jon Sundstrom, Paul Horn, Yuezhi Mao, Dmitri Zuev, Alec White,
  David Stuck, Shaama M.S., Shane Yost, Joonho Lee, David Small,
  Daniel Levine, Susi Lehtola, Hugh Burton, Evgeny Epifanovsky,
  Bang C. Huynh
 -----------------------------------------------------------------------
 Exchange:     0.1900 Hartree-Fock + 0.3500 B88 + 0.4600 muB88 + LR-HF
 Correlation:  0.1900 VWN5 + 0.8100 LYP
 Using SG-1 standard quadrature grid
 using 20 threads for integral computing
 -------------------------------------------------------
 OpenMP Integral computing Module                
 Release: version 1.0, May 2013, Q-Chem Inc. Pittsburgh 
 -------------------------------------------------------
 C-PCM solvent model [f = (eps-1)/eps], solve by matrix inversion
 A unrestricted SCF calculation will be
 performed using DIIS
 SCF converges when DIIS error is below 1.0e-08
 ---------------------------------------
  Cycle       Energy         DIIS error
 ---------------------------------------
    1   -3337.8340556838      1.01e-02  
    2   -3315.9408855380      1.36e-03  
    3   -3315.2246754466      1.96e-03  
    4   -3317.0905626527      4.97e-04  
    5   -3317.1908984166      1.82e-04  
    6   -3317.2087303560      8.81e-05  
    7   -3317.2141469784      2.78e-05  
    8   -3317.2150806549      1.67e-05  
    9   -3317.2154625524      6.74e-06  
   10   -3317.2155815038      3.04e-06  
   11   -3317.2156210384      1.85e-06  
   12   -3317.2156376844      1.11e-06  
   13   -3317.2156421332      5.78e-07  
   14   -3317.2156433649      2.67e-07  
   15   -3317.2156435630      1.34e-07  
   16   -3317.2156436097      6.04e-08  
   17   -3317.2156436207      3.76e-08  
   18   -3317.2156436239      2.18e-08  
   19   -3317.2156436254      1.02e-08  
   20   -3317.2156436271      5.25e-09  Convergence criterion met
 ---------------------------------------
 SCF time:   CPU 306224.10s  wall 17591.00s 
<S^2> =          8.757515046

************** Final PCM Free Energy Summary **************
 G_electrostatic  =      -0.53231366 hartree =    -334.03186343 kcal/mol
 G_cavitation     =       0.00000000 hartree =       0.00000000 kcal/mol
 G_dispersion     =       0.00000000 hartree =       0.00000000 kcal/mol
 G_repulsion      =       0.00000000 hartree =       0.00000000 kcal/mol
 --------------------------------------------------
 Non-electrostatic Free Energy =       0.00000000 hartree =       0.00000000 kcal/mol
 Total                         =      -0.53231366 hartree =    -334.03186343 kcal/mol
 --------------------------------------------------
 SCF Energy (H0 + V/2)                       =   -3317.21564363 
 Solute Internal Energy (H0)                 =   -3316.68332997 
 Total Free Energy (H0 + V/2 + non-elec)     =   -3317.21564363 hartree
                                             = -2081584.23372538 kcal/mol
***********************************************************

 SCF   energy in the final basis set =    -3317.2156436271
 Total energy in the final basis set =    -3317.2156436271
 

 CIS/TDDFT memory preview:
 --------------------------
	NOV = NOa*NVa + NOb*NVb = 343821
	NRoots = 100, max iter = 30, max vectors = 3000
	Size of each subspace vector: 2.62 Mb
	Davidson algorithm may add up to 2 x NOV x NRoots (= 524.6 Mb) per iteration
	Max memory = 15738.9 Mb (worst case scenario)
	Currently available memory = 8000.0 Mb

	In case of problems:
	(a) increase memory (MEM_TOTAL = 15739 can hold 3000 subspace vectors), or
	(b) request fewer states (CIS_N_ROOTS = 50 will fit in current MEM_TOTAL), or
	(c) reduce MAX_CIS_SUBSPACE (= 1524 will fit in current MEM_TOTAL).
	Reducing MAX_CIS_SUBSPACE may hamper convergence.

 Direct TDDFT/TDA calculation will be performed
 Exchange:     0.1900 Hartree-Fock + 0.3500 B88 + 0.4600 muB88 + LR-HF
 Correlation:  0.1900 VWN5 + 0.8100 LYP
 Using SG-1 standard quadrature grid
 Adding PCM contribution to the XC response (LR-PCM)
 CIS energy converged when residual is below 10e- 6
 ---------------------------------------------------
 Iter    Rts Conv    Rts Left    Ttl Dev     Max Dev
 ---------------------------------------------------
   1         0         100      0.004629    0.000370
   2         0         100      0.004913    0.000121
   3         0         100      0.005035    0.000129
   4         0         100      0.003779    0.000093
   5         8          92      0.002519    0.000068
   6        18          82      0.001601    0.000055
   7        23          77      0.001179    0.000078
   8        39          61      0.000755    0.000084
   9        51          49      0.000388    0.000048
  10        70          30      0.000141    0.000018
  11        87          13      0.000051    0.000006
  12        97           3      0.000024    0.000002
  13       100           0      0.000018    0.000001    Roots Converged
 ---------------------------------------------------
 
 ---------------------------------------------------
         TDDFT/TDA Excitation Energies              
 ---------------------------------------------------

 Excited state   1: excitation energy (eV) =    2.5478
 Total energy for state  1:                 -3317.12201432 au
    <S**2>     :  8.7905
    Trans. Mom.:  0.1792 X  -0.1650 Y  -0.0342 Z
    Strength   :     0.0037778572
    D(  159) --> S(    1) amplitude =  0.8174 beta
    D(  159) --> S(    2) amplitude = -0.5136 beta

 Excited state   2: excitation energy (eV) =    2.7093
 Total energy for state  2:                 -3317.11607743 au
    <S**2>     :  8.7991
    Trans. Mom.: -0.4789 X   0.3378 Y   0.0330 Z
    Strength   :     0.0228684842
    D(  158) --> S(    1) amplitude =  0.6997 beta
    D(  158) --> S(    2) amplitude = -0.2505 beta
    D(  159) --> S(    1) amplitude = -0.2257 beta
    D(  159) --> S(    2) amplitude = -0.5642 beta

 Excited state   3: excitation energy (eV) =    2.7590
 Total energy for state  3:                 -3317.11425249 au
    <S**2>     :  8.7892
    Trans. Mom.:  0.5142 X  -0.4031 Y  -0.0051 Z
    Strength   :     0.0288559289
    D(  158) --> S(    1) amplitude =  0.6260 beta
    D(  159) --> S(    1) amplitude =  0.4334 beta
    D(  159) --> S(    2) amplitude =  0.5846 beta

 Excited state   4: excitation energy (eV) =    2.8372
 Total energy for state  4:                 -3317.11137786 au
    <S**2>     :  8.7976
    Trans. Mom.:  0.0638 X   0.2015 Y  -0.0901 Z
    Strength   :     0.0036697006
    D(  158) --> S(    1) amplitude =  0.2275 beta
    D(  158) --> S(    2) amplitude =  0.8180 beta
    D(  159) --> S(    3) amplitude =  0.4295 beta

 Excited state   5: excitation energy (eV) =    2.8964
 Total energy for state  5:                 -3317.10920140 au
    <S**2>     :  8.7946
    Trans. Mom.: -0.0097 X  -0.0628 Y   0.0253 Z
    Strength   :     0.0003321434
    D(  158) --> S(    2) amplitude = -0.4310 beta
    D(  159) --> S(    1) amplitude =  0.1612 beta
    D(  159) --> S(    3) amplitude =  0.8561 beta

 Excited state   6: excitation energy (eV) =    3.0515
 Total energy for state  6:                 -3317.10350390 au
    <S**2>     :  8.7785
    Trans. Mom.: -0.1896 X  -0.3631 Y   0.1598 Z
    Strength   :     0.0144545533
    D(  158) --> S(    3) amplitude =  0.9466 beta

 Excited state   7: excitation energy (eV) =    3.3636
 Total energy for state  7:                 -3317.09203437 au
    <S**2>     :  8.8010
    Trans. Mom.:  0.0286 X   0.0861 Y   0.0023 Z
    Strength   :     0.0006794868
    D(  149) --> S(    1) amplitude = -0.2078 beta
    D(  149) --> S(    2) amplitude =  0.1946 beta
    D(  154) --> S(    1) amplitude =  0.4212 beta
    D(  154) --> S(    2) amplitude = -0.4330 beta
    D(  157) --> S(    1) amplitude =  0.4424 beta
    D(  157) --> S(    2) amplitude = -0.4097 beta

 Excited state   8: excitation energy (eV) =    3.5444
 Total energy for state  8:                 -3317.08539030 au
    <S**2>     :  8.8020
    Trans. Mom.: -0.0808 X  -0.0990 Y  -0.0020 Z
    Strength   :     0.0014183519
    D(  139) --> S(    1) amplitude = -0.1991 beta
    D(  139) --> S(    2) amplitude =  0.1688 beta
    D(  149) --> S(    1) amplitude = -0.1568 beta
    D(  154) --> S(    2) amplitude =  0.4859 beta
    D(  154) --> S(    3) amplitude = -0.2217 beta
    D(  155) --> S(    1) amplitude = -0.2868 beta
    D(  155) --> S(    2) amplitude =  0.3598 beta
    D(  157) --> S(    1) amplitude =  0.3781 beta
    D(  157) --> S(    3) amplitude = -0.2682 beta

 Excited state   9: excitation energy (eV) =    3.6010
 Total energy for state  9:                 -3317.08330772 au
    <S**2>     :  8.7809
    Trans. Mom.:  0.1135 X   0.0116 Y  -0.0845 Z
    Strength   :     0.0017792944
    D(  149) --> S(    2) amplitude = -0.1875 beta
    D(  154) --> S(    1) amplitude =  0.5373 beta
    D(  154) --> S(    2) amplitude =  0.2958 beta
    D(  154) --> S(    3) amplitude =  0.2047 beta
    D(  155) --> S(    1) amplitude =  0.2191 beta
    D(  157) --> S(    1) amplitude =  0.2508 beta
    D(  157) --> S(    2) amplitude =  0.4248 beta
    D(  157) --> S(    3) amplitude =  0.2284 beta

 Excited state  10: excitation energy (eV) =    3.7348
 Total energy for state 10:                 -3317.07839341 au
    <S**2>     :  8.8044
    Trans. Mom.: -0.0733 X   0.1163 Y   0.0366 Z
    Strength   :     0.0018514015
    D(  139) --> S(    1) amplitude =  0.2052 beta
    D(  139) --> S(    2) amplitude =  0.1827 beta
    D(  139) --> S(    3) amplitude = -0.1514 beta
    D(  154) --> S(    1) amplitude =  0.2615 beta
    D(  154) --> S(    2) amplitude =  0.1980 beta
    D(  154) --> S(    3) amplitude = -0.2867 beta
    D(  155) --> S(    1) amplitude =  0.4100 beta
    D(  155) --> S(    2) amplitude =  0.3402 beta
    D(  155) --> S(    3) amplitude = -0.2567 beta
    D(  157) --> S(    1) amplitude = -0.2872 beta
    D(  157) --> S(    2) amplitude = -0.2555 beta

 Excited state  11: excitation energy (eV) =    3.7501
 Total energy for state 11:                 -3317.07782996 au
    <S**2>     :  8.8758
    Trans. Mom.: -0.0693 X   0.1626 Y  -0.0244 Z
    Strength   :     0.0029244460
    D(  159) --> S(    5) amplitude =  0.5879 beta
    D(  159) --> V(    1) amplitude = -0.1514 beta
    D(  159) --> V(    3) amplitude = -0.4303 beta
    D(  159) --> V(    4) amplitude =  0.4891 beta
    D(  159) --> V(    7) amplitude = -0.1710 beta

 Excited state  12: excitation energy (eV) =    3.8237
 Total energy for state 12:                 -3317.07512510 au
    <S**2>     :  8.9682
    Trans. Mom.:  0.0947 X   0.0789 Y   0.0422 Z
    Strength   :     0.0015891824
    D(  139) --> S(    3) amplitude = -0.1764 beta
    D(  154) --> S(    3) amplitude = -0.3129 beta
    D(  155) --> S(    1) amplitude = -0.1864 beta
    D(  155) --> S(    2) amplitude = -0.2209 beta
    D(  155) --> S(    3) amplitude = -0.3320 beta
    D(  157) --> S(    2) amplitude =  0.1978 beta
    D(  158) --> S(    5) amplitude =  0.2804 beta
    D(  158) --> V(    3) amplitude = -0.1570 beta
    D(  159) --> S(    5) amplitude = -0.2432 beta
    D(  159) --> V(    2) amplitude = -0.2351 beta
    D(  159) --> V(    4) amplitude =  0.3532 beta

 Excited state  13: excitation energy (eV) =    3.8552
 Total energy for state 13:                 -3317.07396697 au
    <S**2>     :  8.9150
    Trans. Mom.: -0.0155 X  -0.0118 Y  -0.0033 Z
    Strength   :     0.0000370471
    D(  139) --> S(    3) amplitude = -0.2367 beta
    D(  154) --> S(    3) amplitude = -0.2734 beta
    D(  155) --> S(    3) amplitude = -0.3954 beta
    D(  157) --> S(    3) amplitude =  0.2549 beta
    D(  159) --> S(    5) amplitude =  0.4386 beta
    D(  159) --> V(    2) amplitude =  0.3077 beta
    D(  159) --> V(    4) amplitude = -0.3627 beta

 Excited state  14: excitation energy (eV) =    3.8903
 Total energy for state 14:                 -3317.07267597 au
    <S**2>     :  9.4164
    Trans. Mom.:  0.0756 X   0.1740 Y  -0.1705 Z
    Strength   :     0.0061983457
    S(    4) --> V(   15) amplitude = -0.1679 alpha
    D(  158) --> S(    5) amplitude =  0.5655 beta
    D(  158) --> V(    3) amplitude = -0.2876 beta
    D(  158) --> V(    4) amplitude =  0.2142 beta
    D(  159) --> S(    5) amplitude =  0.2866 beta
    D(  159) --> V(    2) amplitude =  0.1677 beta
    D(  159) --> V(    4) amplitude = -0.1565 beta

 Excited state  15: excitation energy (eV) =    3.9283
 Total energy for state 15:                 -3317.07128124 au
    <S**2>     :  8.8060
    Trans. Mom.:  0.0033 X  -0.4556 Y   0.0180 Z
    Strength   :     0.0200129208
    D(  149) --> S(    3) amplitude = -0.2013 beta
    D(  154) --> S(    1) amplitude = -0.1790 beta
    D(  154) --> S(    2) amplitude =  0.1527 beta
    D(  154) --> S(    3) amplitude =  0.3760 beta
    D(  155) --> S(    1) amplitude = -0.1758 beta
    D(  155) --> S(    2) amplitude =  0.2360 beta
    D(  157) --> S(    2) amplitude = -0.1716 beta
    D(  157) --> S(    3) amplitude =  0.4540 beta
    D(  158) --> V(    2) amplitude =  0.1578 beta
    D(  158) --> V(    4) amplitude = -0.2665 beta

 Excited state  16: excitation energy (eV) =    4.1473
 Total energy for state 16:                 -3317.06323386 au
    <S**2>     :  9.4714
    Trans. Mom.: -0.1456 X   0.1864 Y   0.0328 Z
    Strength   :     0.0057913211
    S(    4) --> V(   15) amplitude =  0.1981 alpha
    S(    4) --> V(   16) amplitude = -0.1515 alpha
    S(    4) --> V(   17) amplitude =  0.1546 alpha
    D(  158) --> S(    5) amplitude =  0.4743 beta
    D(  158) --> V(    2) amplitude =  0.3259 beta
    D(  158) --> V(    4) amplitude = -0.3154 beta
    D(  158) --> V(   19) amplitude =  0.2207 beta
    D(  158) --> V(   22) amplitude = -0.1798 beta

 Excited state  17: excitation energy (eV) =    4.1960
 Total energy for state 17:                 -3317.06144300 au
    <S**2>     :  9.2630
    Trans. Mom.:  0.1853 X  -0.1269 Y  -0.2462 Z
    Strength   :     0.0114149768
    S(    4) --> V(   15) amplitude =  0.1786 alpha
    D(  145) --> S(    1) amplitude = -0.1907 beta
    D(  154) --> S(    3) amplitude =  0.1726 beta
    D(  158) --> V(    2) amplitude = -0.1909 beta
    D(  158) --> V(    3) amplitude = -0.2644 beta
    D(  158) --> V(    4) amplitude =  0.5330 beta
    D(  158) --> V(   18) amplitude = -0.1772 beta
    D(  158) --> V(   19) amplitude =  0.1907 beta
    D(  158) --> V(   22) amplitude = -0.1551 beta

 Excited state  18: excitation energy (eV) =    4.2383
 Total energy for state 18:                 -3317.05988766 au
    <S**2>     :  9.0563
    Trans. Mom.: -0.0637 X   0.0380 Y  -0.0237 Z
    Strength   :     0.0006299062
    S(    5) --> V(   24) amplitude = -0.1687 alpha
    D(  141) --> S(    1) amplitude = -0.1669 beta
    D(  142) --> S(    1) amplitude = -0.1733 beta
    D(  145) --> S(    1) amplitude = -0.6222 beta
    D(  145) --> S(    2) amplitude = -0.4255 beta

 Excited state  19: excitation energy (eV) =    4.2892
 Total energy for state 19:                 -3317.05801665 au
    <S**2>     :  9.8803
    Trans. Mom.:  0.1405 X  -0.0431 Y  -0.0155 Z
    Strength   :     0.0022946132
    S(    5) --> V(   18) amplitude = -0.2330 alpha
    S(    5) --> V(   24) amplitude = -0.3066 alpha
    S(    5) --> V(   26) amplitude =  0.2161 alpha
    D(  145) --> S(    1) amplitude =  0.2547 beta
    D(  158) --> V(    4) amplitude =  0.2326 beta
    D(  159) --> V(    4) amplitude =  0.2361 beta
    D(  159) --> V(   18) amplitude = -0.1848 beta
    D(  159) --> V(   26) amplitude = -0.3154 beta
    D(  159) --> V(   27) amplitude = -0.1874 beta

 Excited state  20: excitation energy (eV) =    4.4521
 Total energy for state 20:                 -3317.05203375 au
    <S**2>     :  8.7857
    Trans. Mom.: -0.1733 X   0.1067 Y  -0.0142 Z
    Strength   :     0.0045410678
    D(  142) --> S(    2) amplitude =  0.2092 beta
    D(  145) --> S(    1) amplitude = -0.5121 beta
    D(  145) --> S(    2) amplitude =  0.7239 beta

 Excited state  21: excitation energy (eV) =    4.6339
 Total energy for state 21:                 -3317.04535023 au
    <S**2>     :  8.7804
    Trans. Mom.:  0.0981 X  -0.1168 Y  -0.0265 Z
    Strength   :     0.0027209329
    D(  141) --> S(    1) amplitude =  0.2205 beta
    D(  149) --> S(    5) amplitude = -0.1657 beta
    D(  154) --> S(    5) amplitude =  0.3921 beta
    D(  154) --> V(    2) amplitude =  0.2578 beta
    D(  154) --> V(    4) amplitude = -0.2941 beta
    D(  157) --> S(    5) amplitude =  0.3642 beta
    D(  157) --> V(    2) amplitude =  0.2393 beta
    D(  157) --> V(    4) amplitude = -0.2704 beta

 Excited state  22: excitation energy (eV) =    4.6341
 Total energy for state 22:                 -3317.04534474 au
    <S**2>     :  8.7879
    Trans. Mom.:  0.1049 X   0.0484 Y  -0.0844 Z
    Strength   :     0.0023251691
    D(  141) --> S(    1) amplitude = -0.7154 beta
    D(  142) --> S(    1) amplitude =  0.4799 beta
    D(  144) --> S(    1) amplitude = -0.1957 beta

 Excited state  23: excitation energy (eV) =    4.6823
 Total energy for state 23:                 -3317.04357222 au
    <S**2>     :  8.7903
    Trans. Mom.: -0.0132 X   0.0337 Y   0.0947 Z
    Strength   :     0.0011791166
    D(  139) --> S(    1) amplitude =  0.2202 beta
    D(  140) --> S(    1) amplitude = -0.1611 beta
    D(  141) --> S(    2) amplitude = -0.1871 beta
    D(  142) --> S(    1) amplitude = -0.2225 beta
    D(  142) --> S(    2) amplitude =  0.1791 beta
    D(  143) --> S(    1) amplitude = -0.5998 beta
    D(  144) --> S(    1) amplitude = -0.4176 beta
    D(  146) --> S(    1) amplitude =  0.2151 beta
    D(  148) --> S(    1) amplitude = -0.2152 beta
    D(  149) --> S(    1) amplitude =  0.1608 beta
    D(  157) --> S(    1) amplitude =  0.1689 beta

 Excited state  24: excitation energy (eV) =    4.7313
 Total energy for state 24:                 -3317.04176997 au
    <S**2>     :  8.7831
    Trans. Mom.: -0.0412 X   0.2546 Y  -0.1358 Z
    Strength   :     0.0098505368
    D(  141) --> S(    2) amplitude =  0.5617 beta
    D(  142) --> S(    2) amplitude = -0.3153 beta
    D(  144) --> S(    2) amplitude =  0.2112 beta
    D(  145) --> S(    3) amplitude =  0.4642 beta
    D(  154) --> S(    5) amplitude =  0.1630 beta

 Excited state  25: excitation energy (eV) =    4.7725
 Total energy for state 25:                 -3317.04025689 au
    <S**2>     :  8.7856
    Trans. Mom.:  0.0342 X   0.0411 Y  -0.1636 Z
    Strength   :     0.0034648699
    D(  139) --> S(    2) amplitude =  0.2228 beta
    D(  142) --> S(    2) amplitude = -0.1594 beta
    D(  143) --> S(    2) amplitude = -0.6217 beta
    D(  144) --> S(    2) amplitude = -0.3959 beta
    D(  145) --> S(    3) amplitude =  0.2867 beta
    D(  146) --> S(    2) amplitude =  0.2006 beta
    D(  148) --> S(    2) amplitude = -0.2045 beta

 Excited state  26: excitation energy (eV) =    4.8103
 Total energy for state 26:                 -3317.03886853 au
    <S**2>     :  8.7832
    Trans. Mom.: -0.0189 X   0.2206 Y  -0.0065 Z
    Strength   :     0.0057799390
    D(  141) --> S(    2) amplitude = -0.4242 beta
    D(  142) --> S(    2) amplitude =  0.3793 beta
    D(  145) --> S(    3) amplitude =  0.5984 beta

 Excited state  27: excitation energy (eV) =    4.8954
 Total energy for state 27:                 -3317.03573956 au
    <S**2>     :  8.7983
    Trans. Mom.:  0.0415 X  -0.0718 Y  -0.0062 Z
    Strength   :     0.0008292210
    D(  149) --> S(    5) amplitude = -0.1583 beta
    D(  154) --> S(    5) amplitude =  0.2462 beta
    D(  154) --> V(    3) amplitude = -0.2714 beta
    D(  154) --> V(    4) amplitude =  0.4230 beta
    D(  157) --> S(    5) amplitude =  0.3856 beta
    D(  157) --> V(    3) amplitude = -0.2645 beta
    D(  157) --> V(    4) amplitude =  0.2857 beta

 Excited state  28: excitation energy (eV) =    4.9710
 Total energy for state 28:                 -3317.03296156 au
    <S**2>     :  8.8349
    Trans. Mom.:  0.2050 X   0.3514 Y  -0.2222 Z
    Strength   :     0.0261692269
    D(  141) --> S(    3) amplitude = -0.5515 beta
    D(  142) --> S(    1) amplitude = -0.2053 beta
    D(  142) --> S(    3) amplitude =  0.3394 beta
    D(  154) --> S(    5) amplitude =  0.2441 beta
    D(  155) --> S(    5) amplitude =  0.2887 beta

 Excited state  29: excitation energy (eV) =    5.0089
 Total energy for state 29:                 -3317.03157114 au
    <S**2>     :  8.8272
    Trans. Mom.: -0.1813 X   0.1310 Y   0.1302 Z
    Strength   :     0.0082165918
    D(  139) --> S(    1) amplitude =  0.1791 beta
    D(  141) --> S(    3) amplitude =  0.3363 beta
    D(  142) --> S(    1) amplitude =  0.1551 beta
    D(  142) --> S(    2) amplitude = -0.2307 beta
    D(  142) --> S(    3) amplitude = -0.1582 beta
    D(  143) --> S(    3) amplitude =  0.1814 beta
    D(  144) --> S(    1) amplitude =  0.2340 beta
    D(  144) --> S(    3) amplitude =  0.2693 beta
    D(  154) --> S(    5) amplitude =  0.2841 beta
    D(  154) --> V(    3) amplitude = -0.1824 beta
    D(  154) --> V(    4) amplitude =  0.1797 beta
    D(  155) --> S(    5) amplitude =  0.3136 beta

 Excited state  30: excitation energy (eV) =    5.0541
 Total energy for state 30:                 -3317.02991009 au
    <S**2>     :  8.8662
    Trans. Mom.: -0.1894 X   0.0474 Y   0.0385 Z
    Strength   :     0.0049040783
    D(  139) --> S(    1) amplitude = -0.2731 beta
    D(  141) --> S(    1) amplitude = -0.2512 beta
    D(  141) --> S(    3) amplitude =  0.2395 beta
    D(  142) --> S(    1) amplitude = -0.5294 beta
    D(  142) --> S(    2) amplitude = -0.1553 beta
    D(  143) --> S(    1) amplitude =  0.3550 beta
    D(  143) --> S(    3) amplitude =  0.2160 beta
    D(  144) --> S(    1) amplitude = -0.3348 beta
    D(  144) --> S(    3) amplitude =  0.1659 beta

 Excited state  31: excitation energy (eV) =    5.0698
 Total energy for state 31:                 -3317.02933115 au
    <S**2>     :  8.7885
    Trans. Mom.: -0.0166 X   0.1032 Y  -0.1174 Z
    Strength   :     0.0030702910
    D(  139) --> S(    2) amplitude = -0.3712 beta
    D(  140) --> S(    2) amplitude =  0.2084 beta
    D(  141) --> S(    2) amplitude = -0.3060 beta
    D(  142) --> S(    2) amplitude = -0.5529 beta
    D(  143) --> S(    2) amplitude =  0.2856 beta
    D(  144) --> S(    2) amplitude = -0.3472 beta
    D(  145) --> S(    2) amplitude =  0.1598 beta

 Excited state  32: excitation energy (eV) =    5.1119
 Total energy for state 32:                 -3317.02778471 au
    <S**2>     :  8.8107
    Trans. Mom.: -0.0462 X   0.0450 Y  -0.0099 Z
    Strength   :     0.0005328779
    D(  139) --> S(    3) amplitude = -0.1906 beta
    D(  142) --> S(    3) amplitude =  0.3348 beta
    D(  143) --> S(    3) amplitude =  0.5036 beta
    D(  144) --> S(    3) amplitude =  0.3067 beta
    D(  146) --> S(    3) amplitude = -0.2012 beta
    D(  148) --> S(    3) amplitude =  0.2097 beta
    D(  149) --> S(    3) amplitude = -0.1622 beta
    D(  155) --> V(    4) amplitude = -0.1675 beta
    D(  157) --> S(    3) amplitude = -0.1953 beta

 Excited state  33: excitation energy (eV) =    5.1722
 Total energy for state 33:                 -3317.02556701 au
    <S**2>     :  8.8601
    Trans. Mom.: -0.1443 X  -0.0631 Y   0.2468 Z
    Strength   :     0.0108621523
    D(  139) --> S(    1) amplitude = -0.1579 beta
    D(  140) --> S(    1) amplitude =  0.2535 beta
    D(  141) --> S(    1) amplitude = -0.2425 beta
    D(  142) --> S(    1) amplitude = -0.2782 beta
    D(  143) --> S(    1) amplitude = -0.4267 beta
    D(  143) --> S(    2) amplitude =  0.2038 beta
    D(  144) --> S(    1) amplitude =  0.5410 beta
    D(  144) --> S(    2) amplitude = -0.1587 beta
    D(  145) --> S(    1) amplitude =  0.2315 beta

 Excited state  34: excitation energy (eV) =    5.1825
 Total energy for state 34:                 -3317.02518862 au
    <S**2>     : 10.7185
    Trans. Mom.: -0.0031 X  -0.0061 Y  -0.0000 Z
    Strength   :     0.0000058955
    D(  156) --> V(   27) amplitude =  0.1502 alpha
    S(    2) --> V(   23) amplitude = -0.1690 alpha
    S(    2) --> V(   26) amplitude = -0.1932 alpha
    S(    2) --> V(   27) amplitude =  0.1923 alpha

 Excited state  35: excitation energy (eV) =    5.1844
 Total energy for state 35:                 -3317.02511951 au
    <S**2>     : 10.6504
    Trans. Mom.: -0.0147 X  -0.0274 Y   0.0266 Z
    Strength   :     0.0002127746
    D(  156) --> V(   17) amplitude =  0.1642 beta

 Excited state  36: excitation energy (eV) =    5.2230
 Total energy for state 36:                 -3317.02370067 au
    <S**2>     :  8.9951
    Trans. Mom.: -0.1185 X  -0.0059 Y   0.2440 Z
    Strength   :     0.0094206800
    D(  140) --> S(    2) amplitude =  0.2071 beta
    D(  141) --> S(    2) amplitude = -0.1896 beta
    D(  142) --> S(    2) amplitude = -0.1858 beta
    D(  143) --> S(    2) amplitude = -0.3890 beta
    D(  144) --> S(    2) amplitude =  0.5643 beta
    D(  145) --> S(    2) amplitude =  0.2107 beta

 Excited state  37: excitation energy (eV) =    5.2598
 Total energy for state 37:                 -3317.02234892 au
    <S**2>     :  9.9006
    Trans. Mom.:  0.0757 X  -0.0929 Y  -0.0844 Z
    Strength   :     0.0027673027
    D(  139) --> S(    1) amplitude = -0.1855 beta
    D(  155) --> V(    4) amplitude =  0.1941 beta
    D(  157) --> V(    4) amplitude = -0.1563 beta

 Excited state  38: excitation energy (eV) =    5.3147
 Total energy for state 38:                 -3317.02033129 au
    <S**2>     :  9.0835
    Trans. Mom.:  0.1572 X  -0.5885 Y   0.0586 Z
    Strength   :     0.0487661998
    D(  140) --> S(    1) amplitude =  0.2398 beta
    D(  143) --> S(    3) amplitude =  0.2184 beta
    D(  144) --> S(    2) amplitude =  0.2502 beta
    D(  155) --> V(    4) amplitude =  0.2964 beta
    D(  157) --> V(    4) amplitude = -0.2579 beta

 Excited state  39: excitation energy (eV) =    5.3607
 Total energy for state 39:                 -3317.01863993 au
    <S**2>     : 10.6412
    Trans. Mom.: -0.0104 X   0.0686 Y   0.0015 Z
    Strength   :     0.0006322302
    D(  149) --> V(   26) amplitude =  0.1586 beta

 Excited state  40: excitation energy (eV) =    5.3778
 Total energy for state 40:                 -3317.01801263 au
    <S**2>     :  9.1181
    Trans. Mom.:  0.2190 X  -0.2218 Y   0.0309 Z
    Strength   :     0.0129252300
    D(  139) --> S(    1) amplitude =  0.1833 beta
    D(  140) --> S(    1) amplitude = -0.3281 beta
    D(  140) --> S(    2) amplitude =  0.1979 beta
    D(  141) --> S(    1) amplitude = -0.2183 beta
    D(  143) --> S(    1) amplitude =  0.1553 beta
    D(  144) --> S(    1) amplitude =  0.2473 beta
    D(  151) --> S(    1) amplitude = -0.1655 beta
    D(  154) --> S(    1) amplitude = -0.1696 beta
    D(  156) --> S(    1) amplitude = -0.1526 beta
    D(  157) --> S(    1) amplitude =  0.3176 beta
    D(  157) --> S(    2) amplitude = -0.1525 beta

 Excited state  41: excitation energy (eV) =    5.4031
 Total energy for state 41:                 -3317.01708185 au
    <S**2>     : 10.2008
    Trans. Mom.: -0.0327 X  -0.0303 Y  -0.0442 Z
    Strength   :     0.0005220748
    D(  140) --> S(    2) amplitude = -0.2636 beta

 Excited state  42: excitation energy (eV) =    5.4180
 Total energy for state 42:                 -3317.01653754 au
    <S**2>     :  9.9661
    Trans. Mom.:  0.0113 X  -0.1973 Y   0.0182 Z
    Strength   :     0.0052274430
    S(    5) --> V(    1) amplitude = -0.1790 alpha
    D(  140) --> S(    2) amplitude = -0.1585 beta
    D(  155) --> S(    1) amplitude =  0.1771 beta
    D(  157) --> S(    1) amplitude =  0.1821 beta
    D(  159) --> S(    4) amplitude =  0.5156 beta
    D(  159) --> S(    5) amplitude =  0.1820 beta
    D(  159) --> V(    2) amplitude = -0.1980 beta
    D(  159) --> V(    3) amplitude =  0.2313 beta

 Excited state  43: excitation energy (eV) =    5.4212
 Total energy for state 43:                 -3317.01641805 au
    <S**2>     :  9.6023
    Trans. Mom.: -0.1435 X  -0.0491 Y   0.0934 Z
    Strength   :     0.0042133639
    S(    4) --> V(    1) amplitude =  0.2810 alpha
    S(    4) --> V(    4) amplitude = -0.1862 alpha
    S(    5) --> V(    1) amplitude = -0.1996 alpha
    D(  140) --> S(    2) amplitude =  0.3298 beta
    D(  141) --> S(    2) amplitude =  0.1648 beta
    D(  143) --> S(    2) amplitude = -0.1630 beta
    D(  144) --> S(    2) amplitude = -0.1556 beta
    D(  155) --> S(    1) amplitude = -0.1791 beta
    D(  157) --> S(    1) amplitude = -0.1598 beta
    D(  157) --> S(    2) amplitude = -0.1993 beta
    D(  158) --> S(    4) amplitude =  0.2177 beta
    D(  159) --> S(    4) amplitude =  0.2116 beta

 Excited state  44: excitation energy (eV) =    5.4345
 Total energy for state 44:                 -3317.01593098 au
    <S**2>     : 10.2266
    Trans. Mom.:  0.0677 X   0.0439 Y  -0.0387 Z
    Strength   :     0.0010662880
    S(    4) --> V(    1) amplitude =  0.4567 alpha
    S(    4) --> V(    4) amplitude = -0.2494 alpha
    D(  140) --> S(    2) amplitude = -0.1600 beta
    D(  158) --> S(    4) amplitude =  0.2786 beta
    D(  159) --> S(    4) amplitude = -0.2818 beta

 Excited state  45: excitation energy (eV) =    5.4519
 Total energy for state 45:                 -3317.01529019 au
    <S**2>     :  9.0762
    Trans. Mom.: -0.2666 X  -0.1987 Y   0.1187 Z
    Strength   :     0.0166470127
    S(    4) --> V(    1) amplitude =  0.1542 alpha
    S(    5) --> V(    1) amplitude =  0.5700 alpha
    S(    5) --> V(    2) amplitude =  0.3088 alpha
    S(    5) --> V(    3) amplitude = -0.2371 alpha
    S(    5) --> V(    5) amplitude = -0.1515 alpha
    S(    5) --> V(   30) amplitude = -0.1574 alpha
    D(  140) --> S(    1) amplitude =  0.1692 beta
    D(  155) --> S(    1) amplitude =  0.1984 beta
    D(  159) --> S(    4) amplitude =  0.1863 beta

 Excited state  46: excitation energy (eV) =    5.4673
 Total energy for state 46:                 -3317.01472275 au
    <S**2>     :  8.8860
    Trans. Mom.: -0.0628 X   0.2673 Y   0.0079 Z
    Strength   :     0.0101052032
    S(    5) --> V(    1) amplitude = -0.2533 alpha
    D(  140) --> S(    1) amplitude =  0.3907 beta
    D(  151) --> S(    1) amplitude = -0.2359 beta
    D(  153) --> S(    1) amplitude =  0.2588 beta
    D(  154) --> S(    1) amplitude = -0.1659 beta
    D(  155) --> S(    1) amplitude =  0.4391 beta
    D(  157) --> S(    1) amplitude =  0.1549 beta

 Excited state  47: excitation energy (eV) =    5.4941
 Total energy for state 47:                 -3317.01373874 au
    <S**2>     :  8.7949
    Trans. Mom.: -0.0323 X   0.1641 Y   0.0415 Z
    Strength   :     0.0039966802
    D(  139) --> S(    3) amplitude = -0.3191 beta
    D(  141) --> S(    3) amplitude = -0.2297 beta
    D(  142) --> S(    3) amplitude = -0.5466 beta
    D(  143) --> S(    3) amplitude =  0.3359 beta
    D(  144) --> S(    3) amplitude = -0.3947 beta

 Excited state  48: excitation energy (eV) =    5.5023
 Total energy for state 48:                 -3317.01343833 au
    <S**2>     :  8.8702
    Trans. Mom.:  0.0079 X   0.2594 Y   0.0490 Z
    Strength   :     0.0094001624
    S(    4) --> V(    1) amplitude = -0.3823 alpha
    S(    4) --> V(    4) amplitude =  0.2024 alpha
    D(  158) --> S(    4) amplitude =  0.5366 beta
    D(  158) --> V(    2) amplitude = -0.2063 beta
    D(  158) --> V(    3) amplitude = -0.2454 beta
    D(  158) --> V(    5) amplitude = -0.1982 beta

 Excited state  49: excitation energy (eV) =    5.5152
 Total energy for state 49:                 -3317.01296496 au
    <S**2>     :  8.8074
    Trans. Mom.: -0.0652 X  -0.0153 Y   0.1179 Z
    Strength   :     0.0024844896
    D(  140) --> S(    2) amplitude =  0.3197 beta
    D(  147) --> S(    2) amplitude =  0.1526 beta
    D(  151) --> S(    2) amplitude = -0.3237 beta
    D(  153) --> S(    2) amplitude =  0.2951 beta
    D(  154) --> S(    2) amplitude = -0.2720 beta
    D(  155) --> S(    2) amplitude =  0.5611 beta
    D(  157) --> S(    2) amplitude =  0.3415 beta

 Excited state  50: excitation energy (eV) =    5.5566
 Total energy for state 50:                 -3317.01144186 au
    <S**2>     :  8.8254
    Trans. Mom.:  0.0160 X  -0.0022 Y  -0.0406 Z
    Strength   :     0.0002598814
    D(  140) --> S(    1) amplitude = -0.3514 beta
    D(  149) --> S(    1) amplitude = -0.4328 beta
    D(  150) --> S(    1) amplitude =  0.2331 beta
    D(  151) --> S(    1) amplitude = -0.2426 beta
    D(  153) --> S(    1) amplitude =  0.4747 beta
    D(  156) --> S(    1) amplitude =  0.2338 beta
    D(  157) --> S(    1) amplitude = -0.2616 beta

 Excited state  51: excitation energy (eV) =    5.5867
 Total energy for state 51:                 -3317.01033626 au
    <S**2>     :  8.8120
    Trans. Mom.: -0.0792 X   0.1008 Y  -0.0301 Z
    Strength   :     0.0023735010
    D(  139) --> S(    3) amplitude =  0.1977 beta
    D(  140) --> S(    3) amplitude = -0.2963 beta
    D(  141) --> S(    3) amplitude =  0.2813 beta
    D(  142) --> S(    3) amplitude =  0.2846 beta
    D(  143) --> S(    3) amplitude =  0.3821 beta
    D(  144) --> S(    3) amplitude = -0.4666 beta
    D(  145) --> S(    3) amplitude = -0.2563 beta
    D(  153) --> S(    2) amplitude = -0.1686 beta

 Excited state  52: excitation energy (eV) =    5.6155
 Total energy for state 52:                 -3317.00927800 au
    <S**2>     :  8.8383
    Trans. Mom.: -0.0319 X   0.1864 Y   0.0012 Z
    Strength   :     0.0049217475
    D(  140) --> S(    2) amplitude = -0.3218 beta
    D(  144) --> S(    3) amplitude = -0.1975 beta
    D(  149) --> S(    2) amplitude = -0.3919 beta
    D(  150) --> S(    2) amplitude =  0.2155 beta
    D(  151) --> S(    2) amplitude = -0.2278 beta
    D(  153) --> S(    2) amplitude =  0.4353 beta
    D(  156) --> S(    2) amplitude =  0.2204 beta
    D(  157) --> S(    2) amplitude = -0.2328 beta

 Excited state  53: excitation energy (eV) =    5.6676
 Total energy for state 53:                 -3317.00736265 au
    <S**2>     :  8.8127
    Trans. Mom.:  0.0380 X  -0.0419 Y  -0.3079 Z
    Strength   :     0.0136090402
    D(  142) --> V(    4) amplitude =  0.1720 beta
    D(  143) --> S(    3) amplitude =  0.1595 beta
    D(  145) --> S(    5) amplitude =  0.4904 beta
    D(  145) --> V(    3) amplitude = -0.2469 beta

 Excited state  54: excitation energy (eV) =    5.6702
 Total energy for state 54:                 -3317.00726903 au
    <S**2>     :  8.8203
    Trans. Mom.:  0.2088 X  -0.1140 Y  -0.2631 Z
    Strength   :     0.0174798617
    D(  139) --> S(    1) amplitude =  0.1880 beta
    D(  142) --> S(    5) amplitude =  0.1506 beta
    D(  145) --> S(    5) amplitude =  0.2974 beta
    D(  145) --> V(    3) amplitude = -0.1728 beta
    D(  149) --> S(    1) amplitude = -0.1742 beta
    D(  149) --> S(    2) amplitude = -0.1974 beta
    D(  153) --> S(    1) amplitude =  0.1662 beta
    D(  153) --> S(    2) amplitude =  0.1983 beta

 Excited state  55: excitation energy (eV) =    5.7162
 Total energy for state 55:                 -3317.00557846 au
    <S**2>     : 10.7393
    Trans. Mom.: -0.0021 X   0.0017 Y   0.0099 Z
    Strength   :     0.0000146992
    D(  150) --> V(   39) amplitude =  0.1524 alpha
    D(  150) --> V(   42) amplitude = -0.1598 alpha
    S(    1) --> V(   39) amplitude =  0.2048 alpha
    S(    1) --> V(   41) amplitude = -0.1872 alpha
    S(    1) --> V(   42) amplitude = -0.2210 alpha
    D(  156) --> V(   39) amplitude = -0.2085 beta
    D(  156) --> V(   41) amplitude = -0.2080 beta
    D(  156) --> V(   42) amplitude =  0.1868 beta

 Excited state  56: excitation energy (eV) =    5.7197
 Total energy for state 56:                 -3317.00544716 au
    <S**2>     :  8.8204
    Trans. Mom.: -0.0355 X   0.0260 Y   0.1162 Z
    Strength   :     0.0021648106
    D(  140) --> S(    3) amplitude = -0.2586 beta
    D(  141) --> S(    3) amplitude = -0.2476 beta
    D(  143) --> S(    3) amplitude =  0.1691 beta
    D(  144) --> S(    3) amplitude =  0.3436 beta
    D(  146) --> S(    3) amplitude = -0.1531 beta
    D(  147) --> S(    3) amplitude =  0.1866 beta
    D(  151) --> S(    3) amplitude = -0.2459 beta
    D(  154) --> S(    3) amplitude = -0.2420 beta
    D(  155) --> S(    3) amplitude =  0.2731 beta
    D(  156) --> S(    3) amplitude = -0.2031 beta
    D(  157) --> S(    3) amplitude =  0.4403 beta

 Excited state  57: excitation energy (eV) =    5.7527
 Total energy for state 57:                 -3317.00423679 au
    <S**2>     :  8.8235
    Trans. Mom.:  0.2147 X   0.1839 Y   0.0135 Z
    Strength   :     0.0112878648
    D(  142) --> V(    4) amplitude = -0.1671 beta
    D(  145) --> S(    5) amplitude =  0.3743 beta
    D(  145) --> V(    2) amplitude =  0.3130 beta
    D(  145) --> V(    4) amplitude = -0.4432 beta
    D(  158) --> V(   19) amplitude =  0.1655 beta

 Excited state  58: excitation energy (eV) =    5.7604
 Total energy for state 58:                 -3317.00395100 au
    <S**2>     : 10.6628
    Trans. Mom.: -0.0089 X  -0.0017 Y   0.0133 Z
    Strength   :     0.0000363129
    D(  159) --> V(   44) amplitude = -0.1609 alpha
    S(    2) --> V(   44) amplitude = -0.1829 alpha
    D(  155) --> V(   40) amplitude =  0.1532 beta
    D(  155) --> V(   44) amplitude =  0.1670 beta

 Excited state  59: excitation energy (eV) =    5.7662
 Total energy for state 59:                 -3317.00373827 au
    <S**2>     :  8.8537
    Trans. Mom.: -0.0065 X  -0.0164 Y  -0.0447 Z
    Strength   :     0.0003261823
    D(  151) --> S(    3) amplitude = -0.1652 beta
    D(  153) --> S(    3) amplitude =  0.2055 beta
    D(  155) --> S(    3) amplitude =  0.1735 beta

 Excited state  60: excitation energy (eV) =    5.7734
 Total energy for state 60:                 -3317.00347586 au
    <S**2>     : 10.7554
    Trans. Mom.:  0.0011 X  -0.0005 Y   0.0032 Z
    Strength   :     0.0000016923
    D(  154) --> V(   39) amplitude = -0.1518 alpha
    D(  154) --> V(   42) amplitude =  0.1614 alpha
    D(  150) --> V(   39) amplitude = -0.1792 beta
    D(  150) --> V(   41) amplitude = -0.1819 beta
    D(  150) --> V(   42) amplitude =  0.1548 beta
    D(  152) --> V(   39) amplitude =  0.1532 beta
    D(  152) --> V(   41) amplitude =  0.1575 beta

 Excited state  61: excitation energy (eV) =    5.7852
 Total energy for state 61:                 -3317.00304310 au
    <S**2>     :  8.8407
    Trans. Mom.: -0.0016 X  -0.0401 Y  -0.0272 Z
    Strength   :     0.0003326662
    D(  139) --> S(    3) amplitude =  0.1547 beta
    D(  140) --> S(    3) amplitude = -0.3490 beta
    D(  144) --> S(    3) amplitude =  0.1543 beta
    D(  149) --> S(    1) amplitude =  0.1548 beta
    D(  151) --> S(    3) amplitude =  0.2263 beta
    D(  153) --> S(    3) amplitude = -0.2687 beta
    D(  154) --> S(    3) amplitude =  0.1553 beta
    D(  155) --> S(    3) amplitude = -0.4019 beta
    D(  156) --> S(    1) amplitude =  0.4258 beta

 Excited state  62: excitation energy (eV) =    5.7919
 Total energy for state 62:                 -3317.00279358 au
    <S**2>     :  8.8063
    Trans. Mom.:  0.0644 X  -0.0105 Y   0.0284 Z
    Strength   :     0.0007184787
    D(  140) --> S(    3) amplitude =  0.2900 beta
    D(  149) --> S(    1) amplitude =  0.1515 beta
    D(  150) --> S(    1) amplitude =  0.1711 beta
    D(  155) --> S(    3) amplitude =  0.2560 beta
    D(  156) --> S(    1) amplitude =  0.5875 beta
    D(  156) --> S(    2) amplitude = -0.1954 beta
    D(  157) --> S(    1) amplitude =  0.1756 beta

 Excited state  63: excitation energy (eV) =    5.8003
 Total energy for state 63:                 -3317.00248480 au
    <S**2>     : 10.7539
    Trans. Mom.: -0.0033 X  -0.0025 Y  -0.0016 Z
    Strength   :     0.0000028121
    D(  151) --> V(   44) amplitude = -0.1669 alpha
    D(  152) --> V(   44) amplitude =  0.1674 alpha
    D(  148) --> V(   40) amplitude = -0.1630 beta
    D(  148) --> V(   44) amplitude = -0.1860 beta
    D(  153) --> V(   40) amplitude = -0.1519 beta
    D(  153) --> V(   44) amplitude = -0.1718 beta

 Excited state  64: excitation energy (eV) =    5.8025
 Total energy for state 64:                 -3317.00240604 au
    <S**2>     :  8.7693
    Trans. Mom.: -0.0698 X  -0.1348 Y   0.0705 Z
    Strength   :     0.0039812663

 Excited state  65: excitation energy (eV) =    5.8529
 Total energy for state 65:                 -3317.00055521 au
    <S**2>     :  9.3255
    Trans. Mom.: -0.0723 X  -0.0955 Y   0.0649 Z
    Strength   :     0.0026600608
    D(  144) --> S(    5) amplitude =  0.1539 beta
    D(  146) --> S(    2) amplitude = -0.1586 beta
    D(  149) --> S(    2) amplitude =  0.1691 beta
    D(  150) --> S(    2) amplitude =  0.1839 beta
    D(  156) --> S(    1) amplitude =  0.2035 beta
    D(  156) --> S(    2) amplitude =  0.6098 beta
    D(  157) --> S(    2) amplitude =  0.1730 beta

 Excited state  66: excitation energy (eV) =    5.8642
 Total energy for state 66:                 -3317.00013723 au
    <S**2>     :  9.5200
    Trans. Mom.:  0.2204 X   0.1671 Y  -0.1656 Z
    Strength   :     0.0149280426
    D(  144) --> S(    5) amplitude = -0.2267 beta
    D(  149) --> S(    2) amplitude =  0.1640 beta
    D(  156) --> S(    1) amplitude =  0.2686 beta
    D(  156) --> S(    2) amplitude =  0.4159 beta

 Excited state  67: excitation energy (eV) =    5.8818
 Total energy for state 67:                 -3316.99949320 au
    <S**2>     :  9.0360
    Trans. Mom.: -0.5350 X   0.0365 Y  -0.0372 Z
    Strength   :     0.0416298578
    D(  140) --> S(    3) amplitude = -0.2141 beta
    D(  143) --> S(    5) amplitude =  0.1685 beta
    D(  145) --> V(    2) amplitude =  0.1529 beta
    D(  145) --> V(    4) amplitude = -0.3029 beta
    D(  149) --> S(    3) amplitude = -0.2574 beta
    D(  153) --> S(    3) amplitude =  0.2693 beta
    D(  156) --> S(    3) amplitude =  0.1688 beta
    D(  157) --> S(    3) amplitude = -0.1587 beta
    D(  159) --> V(    1) amplitude = -0.1536 beta
    D(  159) --> V(    3) amplitude =  0.1590 beta

 Excited state  68: excitation energy (eV) =    5.8914
 Total energy for state 68:                 -3316.99913693 au
    <S**2>     :  9.7112
    Trans. Mom.:  0.0687 X  -0.0292 Y  -0.0114 Z
    Strength   :     0.0008242866
    D(  140) --> S(    3) amplitude = -0.2191 beta
    D(  149) --> S(    3) amplitude = -0.2642 beta
    D(  153) --> S(    3) amplitude =  0.2752 beta
    D(  156) --> S(    3) amplitude =  0.1548 beta
    D(  157) --> S(    3) amplitude = -0.1618 beta
    D(  159) --> S(    4) amplitude =  0.2505 beta
    D(  159) --> V(    1) amplitude =  0.3640 beta
    D(  159) --> V(    3) amplitude = -0.3325 beta
    D(  159) --> V(    5) amplitude = -0.1885 beta
    D(  159) --> V(    6) amplitude = -0.2682 beta

 Excited state  69: excitation energy (eV) =    5.9009
 Total energy for state 69:                 -3316.99878999 au
    <S**2>     :  9.6967
    Trans. Mom.: -0.3477 X   0.0354 Y   0.1312 Z
    Strength   :     0.0201477926
    D(  140) --> S(    3) amplitude =  0.1578 beta
    D(  143) --> S(    5) amplitude =  0.2156 beta
    D(  145) --> V(    4) amplitude = -0.2007 beta
    D(  149) --> S(    3) amplitude =  0.2031 beta
    D(  153) --> S(    3) amplitude = -0.2118 beta
    D(  159) --> V(    1) amplitude =  0.2841 beta
    D(  159) --> V(    3) amplitude = -0.2072 beta
    D(  159) --> V(    6) amplitude = -0.1578 beta

 Excited state  70: excitation energy (eV) =    5.9121
 Total energy for state 70:                 -3316.99837676 au
    <S**2>     : 10.0610
    Trans. Mom.:  0.0285 X   0.2154 Y  -0.1540 Z
    Strength   :     0.0102732021
    S(    4) --> V(    2) amplitude =  0.1577 alpha
    S(    4) --> V(    3) amplitude =  0.5374 alpha
    S(    4) --> V(    7) amplitude =  0.1986 alpha
    S(    5) --> V(    2) amplitude = -0.1556 alpha
    S(    5) --> V(    3) amplitude = -0.3762 alpha
    D(  158) --> V(    1) amplitude =  0.2112 beta
    D(  158) --> V(    2) amplitude =  0.1808 beta

 Excited state  71: excitation energy (eV) =    5.9205
 Total energy for state 71:                 -3316.99806947 au
    <S**2>     : 10.7494
    Trans. Mom.: -0.0127 X  -0.0232 Y   0.0102 Z
    Strength   :     0.0001166843
    D(  154) --> V(   39) amplitude =  0.1621 alpha
    D(  154) --> V(   42) amplitude = -0.1661 alpha
    D(  157) --> V(   39) amplitude = -0.1987 alpha
    D(  157) --> V(   41) amplitude =  0.1789 alpha
    D(  157) --> V(   42) amplitude =  0.2041 alpha
    D(  152) --> V(   31) amplitude = -0.1535 beta
    D(  152) --> V(   39) amplitude =  0.2228 beta
    D(  152) --> V(   41) amplitude =  0.2213 beta
    D(  152) --> V(   42) amplitude = -0.1871 beta

 Excited state  72: excitation energy (eV) =    5.9236
 Total energy for state 72:                 -3316.99795429 au
    <S**2>     :  9.5170
    Trans. Mom.: -0.0457 X  -0.3465 Y   0.0613 Z
    Strength   :     0.0182758907
    S(    4) --> V(    3) amplitude =  0.2571 alpha
    S(    5) --> V(    3) amplitude =  0.2970 alpha
    S(    5) --> V(    6) amplitude = -0.1919 alpha
    S(    5) --> V(    7) amplitude = -0.1959 alpha
    D(  158) --> V(    1) amplitude =  0.1892 beta
    D(  158) --> V(    2) amplitude =  0.2340 beta

 Excited state  73: excitation energy (eV) =    5.9322
 Total energy for state 73:                 -3316.99764092 au
    <S**2>     : 10.6661
    Trans. Mom.:  0.0000 X   0.1184 Y  -0.0202 Z
    Strength   :     0.0020977678
    D(  155) --> V(   44) amplitude =  0.1792 alpha
    D(  158) --> V(   44) amplitude =  0.1645 alpha
    D(  151) --> V(   34) amplitude =  0.1505 beta
    D(  151) --> V(   40) amplitude = -0.2005 beta
    D(  151) --> V(   44) amplitude = -0.2295 beta
    D(  153) --> V(   44) amplitude = -0.1596 beta

 Excited state  74: excitation energy (eV) =    5.9417
 Total energy for state 74:                 -3316.99729119 au
    <S**2>     :  9.0596
    Trans. Mom.: -0.2915 X  -0.1538 Y  -0.0782 Z
    Strength   :     0.0167043612
    S(    4) --> V(    2) amplitude = -0.1531 alpha
    S(    4) --> V(    3) amplitude = -0.3616 alpha
    S(    5) --> V(    4) amplitude =  0.1769 alpha
    D(  158) --> V(    1) amplitude =  0.4223 beta
    D(  158) --> V(    2) amplitude =  0.4171 beta
    D(  158) --> V(    7) amplitude = -0.1674 beta
    D(  158) --> V(    9) amplitude =  0.1587 beta

 Excited state  75: excitation energy (eV) =    5.9531
 Total energy for state 75:                 -3316.99687195 au
    <S**2>     :  8.9311
    Trans. Mom.: -0.4497 X  -0.2561 Y  -0.1318 Z
    Strength   :     0.0415896458
    S(    5) --> V(    1) amplitude = -0.1549 alpha
    S(    5) --> V(    3) amplitude = -0.1532 alpha
    S(    5) --> V(    4) amplitude =  0.2120 alpha
    S(    5) --> V(    6) amplitude =  0.1762 alpha
    S(    5) --> V(   24) amplitude =  0.1669 alpha
    D(  133) --> S(    2) amplitude =  0.1678 beta
    D(  139) --> S(    1) amplitude =  0.1628 beta
    D(  139) --> S(    2) amplitude = -0.2317 beta
    D(  142) --> S(    5) amplitude = -0.1796 beta
    D(  158) --> V(    1) amplitude = -0.1688 beta
    D(  159) --> V(    2) amplitude =  0.2038 beta
    D(  159) --> V(    4) amplitude =  0.1550 beta
    D(  159) --> V(    7) amplitude =  0.1682 beta

 Excited state  76: excitation energy (eV) =    5.9634
 Total energy for state 76:                 -3316.99649222 au
    <S**2>     :  9.2315
    Trans. Mom.: -0.3392 X  -0.0026 Y  -0.1312 Z
    Strength   :     0.0193228020
    S(    5) --> V(    3) amplitude =  0.1865 alpha
    D(  133) --> S(    1) amplitude =  0.2496 beta
    D(  133) --> S(    2) amplitude =  0.1848 beta
    D(  139) --> S(    1) amplitude = -0.1561 beta
    D(  140) --> S(    1) amplitude = -0.1760 beta

 Excited state  77: excitation energy (eV) =    5.9717
 Total energy for state 77:                 -3316.99618857 au
    <S**2>     :  8.8469
    Trans. Mom.: -0.1932 X   0.3532 Y   0.0757 Z
    Strength   :     0.0245539529
    D(  139) --> S(    1) amplitude =  0.3928 beta
    D(  139) --> S(    2) amplitude = -0.3791 beta
    D(  140) --> S(    1) amplitude =  0.1830 beta
    D(  140) --> S(    2) amplitude = -0.2531 beta
    D(  153) --> S(    1) amplitude =  0.1704 beta
    D(  155) --> S(    1) amplitude = -0.1933 beta

 Excited state  78: excitation energy (eV) =    5.9841
 Total energy for state 78:                 -3316.99573144 au
    <S**2>     :  9.0258
    Trans. Mom.:  0.1810 X  -0.4648 Y   0.5974 Z
    Strength   :     0.0887903436
    D(  139) --> S(    5) amplitude = -0.1597 beta
    D(  141) --> V(    4) amplitude =  0.1790 beta
    D(  143) --> S(    5) amplitude =  0.2928 beta
    D(  144) --> S(    5) amplitude =  0.3283 beta

 Excited state  79: excitation energy (eV) =    6.0374
 Total energy for state 79:                 -3316.99377273 au
    <S**2>     :  8.9227
    Trans. Mom.:  0.4795 X  -0.4580 Y   0.2115 Z
    Strength   :     0.0716531366
    D(  133) --> S(    1) amplitude =  0.2546 beta
    D(  138) --> S(    1) amplitude = -0.1641 beta
    D(  141) --> S(    5) amplitude = -0.3579 beta
    D(  141) --> V(    2) amplitude = -0.1768 beta
    D(  142) --> S(    5) amplitude =  0.3458 beta
    D(  142) --> V(    2) amplitude =  0.1895 beta
    D(  142) --> V(    4) amplitude = -0.1730 beta
    D(  151) --> S(    1) amplitude =  0.2504 beta

 Excited state  80: excitation energy (eV) =    6.0489
 Total energy for state 80:                 -3316.99335006 au
    <S**2>     :  9.5391
    Trans. Mom.: -0.1523 X   0.0753 Y  -0.0499 Z
    Strength   :     0.0046491284
    D(  139) --> S(    2) amplitude =  0.1996 beta
    D(  151) --> S(    1) amplitude = -0.1736 beta
    D(  152) --> S(    1) amplitude = -0.1796 beta
    D(  155) --> S(    1) amplitude = -0.1720 beta
    D(  159) --> V(    1) amplitude =  0.2851 beta
    D(  159) --> V(    2) amplitude =  0.3339 beta
    D(  159) --> V(    3) amplitude =  0.1894 beta
[...]
  1.8725   1.8735   1.8790   1.8838   1.8863   1.8915   1.8956   1.8985
  1.9030   1.9068   1.9106   1.9118   1.9191   1.9223   1.9315   1.9340
  1.9393   1.9446   1.9458   1.9514   1.9568   1.9607   1.9669   1.9701
  1.9725   1.9747   1.9760   1.9791   1.9831   1.9864   1.9896   1.9917
  1.9977   2.0025   2.0071   2.0101   2.0138   2.0167   2.0220   2.0256
  2.0265   2.0345   2.0416   2.0426   2.0476   2.0485   2.0534   2.0572
  2.0596   2.0657   2.0665   2.0700   2.0723   2.0764   2.0796   2.0823
  2.0877   2.0900   2.0924   2.0982   2.1011   2.1035   2.1084   2.1110
  2.1157   2.1194   2.1202   2.1247   2.1275   2.1305   2.1350   2.1375
  2.1393   2.1451   2.1495   2.1533   2.1552   2.1613   2.1632   2.1707
  2.1755   2.1779   2.1840   2.1865   2.1883   2.1988   2.2034   2.2077
  2.2118   2.2174   2.2199   2.2246   2.2308   2.2312   2.2353   2.2402
  2.2505   2.2544   2.2568   2.2615   2.2649   2.2689   2.2733   2.2794
  2.2813   2.2900   2.2996   2.3013   2.3056   2.3149   2.3170   2.3207
  2.3248   2.3281   2.3332   2.3353   2.3369   2.3395   2.3449   2.3506
  2.3538   2.3566   2.3635   2.3649   2.3736   2.3785   2.3837   2.3862
  2.3872   2.3997   2.4027   2.4103   2.4183   2.4286   2.4295   2.4326
  2.4373   2.4440   2.4485   2.4556   2.4642   2.4657   2.4682   2.4758
  2.4796   2.4829   2.4867   2.4892   2.4960   2.4985   2.5055   2.5105
  2.5167   2.5209   2.5254   2.5267   2.5321   2.5377   2.5401   2.5483
  2.5527   2.5556   2.5631   2.5668   2.5786   2.5821   2.5853   2.5905
  2.6004   2.6057   2.6086   2.6118   2.6166   2.6184   2.6268   2.6358
  2.6443   2.6509   2.6532   2.6593   2.6714   2.6734   2.6778   2.6887
  2.6953   2.6984   2.7047   2.7132   2.7169   2.7188   2.7319   2.7374
  2.7464   2.7519   2.7568   2.7606   2.7747   2.7759   2.7794   2.7856
  2.7963   2.8000   2.8075   2.8115   2.8140   2.8251   2.8321   2.8489
  2.8506   2.8590   2.8626   2.8676   2.8738   2.8810   2.8821   2.8901
  2.8971   2.9020   2.9166   2.9221   2.9283   2.9366   2.9465   2.9492
  2.9532   2.9644   2.9773   2.9911   2.9959   3.0043   3.0134   3.0225
  3.0372   3.0525   3.0619   3.0765   3.0849   3.0920   3.0990   3.1137
  3.1172   3.1268   3.1431   3.1501   3.1510   3.1637   3.1918   3.2046
  3.2359   3.2465   3.2874   3.2983   3.3178   3.3496   3.3571   3.3768
  3.3823   3.4005   3.4072   3.4451   3.4900   3.4966   3.5056   3.5103
  3.5141   3.5263   3.5306   3.5355   3.5405   3.5442   3.5503   3.5585
  3.5646   3.5663   3.5760   3.5852   3.5872   3.5924   3.5945   3.6057
  3.6103   3.6120   3.6145   3.6228   3.6272   3.6307   3.6336   3.6367
  3.6420   3.6467   3.6507   3.6551   3.6640   3.6730   3.6787   3.6829
  3.6965   3.7053   3.7213   3.7343   3.7433   3.7498   3.7589   3.7634
  3.7733   3.7802   3.7890   3.7914   3.7983   3.8038   3.8291   3.8345
  3.8531   3.8556   3.8646   3.8735   3.8832   3.8877   3.9010   3.9195
  3.9303   3.9438   3.9519   3.9739   3.9806   3.9963   4.0078   4.0383
  4.0419   4.0540   4.0625   4.0738   4.0800   4.1044   4.1160   4.1451
  4.1555   4.1718   4.1864   4.2323   4.2466   4.2606   4.2876   4.3823
  4.4063   4.4987   4.5476   4.6139   4.6591   4.7602
 
 Beta MOs
 -- Occupied --
******** -30.1256 -25.9961 -25.9943 -25.9936 -19.2045 -19.1967 -19.1960
-19.1942 -19.1929 -19.1836 -19.1807 -19.1779 -19.1665 -19.1651 -19.1630
-19.1607 -19.1598 -14.4792 -14.4777 -14.4112 -14.4071 -10.3629 -10.3584
-10.3576 -10.3576 -10.3498 -10.3463 -10.3445 -10.3078 -10.2875 -10.2869
-10.2824 -10.2790 -10.2606 -10.2596 -10.2540 -10.2479 -10.2450 -10.2442
-10.2434 -10.2408 -10.2353 -10.2325  -3.4931  -2.2550  -2.2518  -2.2507
 -1.1585  -1.1545  -1.1307  -1.1151  -1.1112  -1.1076  -1.1026  -1.0858
 -1.0814  -1.0450  -1.0245  -1.0232  -1.0206  -0.9936  -0.9870  -0.9282
 -0.9231  -0.8762  -0.8728  -0.8518  -0.8368  -0.8264  -0.8079  -0.8005
 -0.7889  -0.7673  -0.7565  -0.7166  -0.7066  -0.6868  -0.6629  -0.6606
 -0.6298  -0.6277  -0.6109  -0.6067  -0.6010  -0.5950  -0.5850  -0.5743
 -0.5696  -0.5622  -0.5588  -0.5536  -0.5489  -0.5435  -0.5418  -0.5400
 -0.5353  -0.5312  -0.5256  -0.5206  -0.5162  -0.5095  -0.5041  -0.5016
 -0.4983  -0.4900  -0.4886  -0.4840  -0.4796  -0.4793  -0.4771  -0.4738
 -0.4685  -0.4663  -0.4648  -0.4623  -0.4620  -0.4548  -0.4539  -0.4517
 -0.4459  -0.4431  -0.4355  -0.4350  -0.4309  -0.4269  -0.4193  -0.4184
 -0.4116  -0.4077  -0.4038  -0.3915  -0.3907  -0.3876  -0.3829  -0.3811
 -0.3761  -0.3700  -0.3695  -0.3667  -0.3574  -0.3494  -0.3464  -0.3440
 -0.3362  -0.3270  -0.3233  -0.3216  -0.3167  -0.3140  -0.3071  -0.3066
 -0.3045  -0.3025  -0.2968  -0.2951  -0.2908  -0.2638  -0.2600
 -- Virtual --
 -0.0256  -0.0230  -0.0130   0.0144   0.0180   0.0200   0.0206   0.0211
  0.0240   0.0302   0.0314   0.0328   0.0347   0.0365   0.0446   0.0456
  0.0484   0.0491   0.0500   0.0555   0.0583   0.0607   0.0626   0.0646
  0.0653   0.0665   0.0703   0.0714   0.0726   0.0730   0.0750   0.0770
  0.0789   0.0817   0.0819   0.0860   0.0860   0.0886   0.0897   0.0932
  0.0936   0.0944   0.0958   0.0990   0.1024   0.1025   0.1044   0.1059
  0.1071   0.1094   0.1104   0.1123   0.1140   0.1191   0.1204   0.1205
  0.1212   0.1247   0.1260   0.1273   0.1290   0.1304   0.1321   0.1341
  0.1367   0.1381   0.1388   0.1405   0.1432   0.1439   0.1458   0.1479
  0.1497   0.1511   0.1523   0.1530   0.1548   0.1568   0.1594   0.1609
  0.1632   0.1651   0.1661   0.1679   0.1691   0.1699   0.1735   0.1760
  0.1779   0.1791   0.1814   0.1824   0.1846   0.1875   0.1878   0.1884
  0.1915   0.1934   0.1959   0.1965   0.1981   0.1985   0.2024   0.2034
  0.2048   0.2075   0.2086   0.2116   0.2132   0.2145   0.2150   0.2174
  0.2207   0.2214   0.2222   0.2257   0.2276   0.2293   0.2310   0.2338
  0.2344   0.2353   0.2371   0.2384   0.2398   0.2430   0.2447   0.2470
  0.2490   0.2501   0.2504   0.2520   0.2528   0.2572   0.2580   0.2614
  0.2620   0.2636   0.2653   0.2679   0.2708   0.2716   0.2722   0.2737
  0.2755   0.2769   0.2785   0.2800   0.2820   0.2844   0.2856   0.2861
  0.2883   0.2913   0.2928   0.2937   0.2954   0.2974   0.2983   0.2997
  0.3019   0.3031   0.3051   0.3068   0.3084   0.3090   0.3111   0.3133
  0.3139   0.3162   0.3185   0.3205   0.3211   0.3228   0.3250   0.3259
  0.3265   0.3285   0.3295   0.3312   0.3329   0.3351   0.3367   0.3376
  0.3381   0.3409   0.3418   0.3441   0.3460   0.3483   0.3488   0.3504
  0.3509   0.3529   0.3552   0.3573   0.3598   0.3612   0.3626   0.3630
  0.3657   0.3678   0.3686   0.3711   0.3743   0.3751   0.3776   0.3791
  0.3815   0.3836   0.3846   0.3862   0.3881   0.3908   0.3910   0.3930
  0.3937   0.3954   0.3979   0.4001   0.4010   0.4040   0.4093   0.4097
  0.4119   0.4123   0.4143   0.4177   0.4190   0.4201   0.4214   0.4235
  0.4270   0.4289   0.4298   0.4319   0.4341   0.4350   0.4357   0.4374
  0.4401   0.4444   0.4448   0.4482   0.4487   0.4521   0.4534   0.4540
  0.4575   0.4619   0.4636   0.4643   0.4673   0.4699   0.4706   0.4732
  0.4751   0.4778   0.4797   0.4831   0.4839   0.4855   0.4888   0.4902
  0.4908   0.4939   0.4974   0.4978   0.4999   0.5023   0.5065   0.5083
  0.5097   0.5116   0.5134   0.5157   0.5169   0.5198   0.5242   0.5262
  0.5285   0.5307   0.5319   0.5335   0.5361   0.5384   0.5410   0.5427
  0.5438   0.5454   0.5471   0.5491   0.5526   0.5527   0.5560   0.5567
  0.5584   0.5613   0.5619   0.5630   0.5643   0.5691   0.5707   0.5730
  0.5748   0.5765   0.5797   0.5830   0.5834   0.5872   0.5883   0.5920
  0.5923   0.5935   0.5959   0.5969   0.5998   0.6026   0.6078   0.6088
  0.6109   0.6119   0.6132   0.6149   0.6157   0.6176   0.6202   0.6222
  0.6255   0.6283   0.6320   0.6336   0.6354   0.6369   0.6379   0.6397
  0.6426   0.6456   0.6472   0.6492   0.6510   0.6525   0.6544   0.6565
  0.6575   0.6612   0.6627   0.6668   0.6681   0.6704   0.6717   0.6741
  0.6768   0.6814   0.6826   0.6851   0.6854   0.6885   0.6900   0.6942
  0.6955   0.6973   0.7026   0.7045   0.7056   0.7066   0.7090   0.7111
  0.7149   0.7171   0.7201   0.7231   0.7260   0.7284   0.7289   0.7308
  0.7348   0.7363   0.7395   0.7411   0.7450   0.7466   0.7479   0.7485
  0.7530   0.7554   0.7571   0.7593   0.7610   0.7635   0.7672   0.7693
  0.7699   0.7716   0.7759   0.7801   0.7824   0.7827   0.7842   0.7850
  0.7864   0.7907   0.7921   0.7932   0.7961   0.7974   0.7995   0.8013
  0.8034   0.8082   0.8109   0.8155   0.8186   0.8209   0.8227   0.8244
  0.8274   0.8289   0.8316   0.8355   0.8380   0.8394   0.8401   0.8418
  0.8455   0.8476   0.8483   0.8503   0.8549   0.8579   0.8622   0.8646
  0.8666   0.8678   0.8731   0.8748   0.8761   0.8790   0.8836   0.8840
  0.8882   0.8902   0.8920   0.8944   0.8974   0.9010   0.9026   0.9059
  0.9080   0.9113   0.9133   0.9186   0.9208   0.9214   0.9257   0.9273
  0.9296   0.9323   0.9328   0.9350   0.9374   0.9391   0.9437   0.9455
  0.9474   0.9521   0.9551   0.9570   0.9597   0.9632   0.9665   0.9702
  0.9728   0.9762   0.9785   0.9812   0.9858   0.9866   0.9883   0.9947
  0.9991   1.0004   1.0029   1.0074   1.0093   1.0120   1.0155   1.0186
  1.0219   1.0269   1.0272   1.0320   1.0336   1.0405   1.0436   1.0450
  1.0537   1.0555   1.0556   1.0596   1.0615   1.0648   1.0694   1.0739
  1.0758   1.0787   1.0799   1.0833   1.0869   1.0910   1.0917   1.0971
  1.0988   1.1006   1.1069   1.1119   1.1132   1.1195   1.1223   1.1244
  1.1276   1.1309   1.1333   1.1344   1.1398   1.1437   1.1446   1.1512
  1.1572   1.1581   1.1637   1.1662   1.1734   1.1760   1.1805   1.1839
  1.1861   1.1887   1.1909   1.1976   1.1986   1.2039   1.2054   1.2064
  1.2088   1.2129   1.2147   1.2204   1.2238   1.2324   1.2349   1.2358
  1.2408   1.2449   1.2487   1.2510   1.2533   1.2563   1.2596   1.2608
  1.2657   1.2673   1.2735   1.2776   1.2784   1.2801   1.2861   1.2870
  1.2911   1.2931   1.2972   1.3014   1.3024   1.3063   1.3113   1.3129
  1.3151   1.3239   1.3266   1.3339   1.3359   1.3374   1.3432   1.3456
  1.3473   1.3540   1.3549   1.3575   1.3596   1.3633   1.3663   1.3687
  1.3712   1.3743   1.3752   1.3823   1.3877   1.3920   1.3952   1.4019
  1.4080   1.4089   1.4128   1.4181   1.4214   1.4252   1.4284   1.4307
  1.4343   1.4426   1.4448   1.4524   1.4575   1.4612   1.4628   1.4655
  1.4678   1.4726   1.4774   1.4829   1.4842   1.4899   1.4934   1.4941
  1.5025   1.5069   1.5169   1.5205   1.5219   1.5296   1.5318   1.5367
  1.5410   1.5449   1.5527   1.5574   1.5604   1.5617   1.5676   1.5693
  1.5747   1.5794   1.5858   1.5882   1.5900   1.5967   1.6001   1.6043
  1.6086   1.6131   1.6177   1.6235   1.6273   1.6336   1.6350   1.6398
  1.6416   1.6448   1.6463   1.6531   1.6566   1.6631   1.6651   1.6687
  1.6733   1.6783   1.6802   1.6806   1.6862   1.6932   1.6959   1.6972
  1.7020   1.7109   1.7165   1.7182   1.7207   1.7241   1.7260   1.7320
  1.7337   1.7392   1.7404   1.7445   1.7504   1.7521   1.7593   1.7645
  1.7655   1.7713   1.7732   1.7770   1.7800   1.7823   1.7838   1.7860
  1.7913   1.7945   1.7959   1.8060   1.8096   1.8126   1.8154   1.8171
  1.8191   1.8212   1.8269   1.8322   1.8348   1.8378   1.8446   1.8465
  1.8504   1.8592   1.8604   1.8660   1.8714   1.8755   1.8786   1.8836
  1.8863   1.8886   1.8964   1.8972   1.9005   1.9051   1.9088   1.9125
  1.9163   1.9217   1.9246   1.9347   1.9388   1.9423   1.9471   1.9485
  1.9543   1.9601   1.9625   1.9690   1.9725   1.9746   1.9767   1.9796
  1.9822   1.9871   1.9887   1.9926   1.9952   2.0019   2.0052   2.0088
  2.0134   2.0161   2.0193   2.0243   2.0271   2.0285   2.0370   2.0436
  2.0447   2.0509   2.0513   2.0556   2.0594   2.0615   2.0665   2.0687
  2.0711   2.0750   2.0781   2.0825   2.0838   2.0905   2.0929   2.0946
  2.1012   2.1040   2.1054   2.1097   2.1129   2.1164   2.1200   2.1221
  2.1267   2.1293   2.1340   2.1389   2.1399   2.1431   2.1464   2.1511
  2.1569   2.1579   2.1640   2.1645   2.1723   2.1777   2.1799   2.1866
  2.1885   2.1911   2.2009   2.2066   2.2128   2.2139   2.2196   2.2217
  2.2303   2.2324   2.2357   2.2367   2.2468   2.2536   2.2557   2.2588
  2.2642   2.2702   2.2721   2.2761   2.2810   2.2856   2.2913   2.3013
  2.3057   2.3087   2.3166   2.3216   2.3237   2.3287   2.3293   2.3358
  2.3376   2.3384   2.3414   2.3466   2.3522   2.3588   2.3590   2.3663
  2.3664   2.3746   2.3799   2.3852   2.3881   2.3892   2.4007   2.4084
  2.4120   2.4207   2.4302   2.4320   2.4339   2.4405   2.4456   2.4494
  2.4589   2.4662   2.4699   2.4716   2.4777   2.4819   2.4847   2.4896
  2.4938   2.4976   2.5011   2.5090   2.5127   2.5176   2.5224   2.5285
  2.5310   2.5330   2.5406   2.5427   2.5505   2.5540   2.5581   2.5661
  2.5699   2.5812   2.5854   2.5883   2.5924   2.6029   2.6082   2.6113
  2.6148   2.6198   2.6218   2.6291   2.6387   2.6461   2.6543   2.6590
  2.6605   2.6726   2.6764   2.6789   2.6899   2.6972   2.7008   2.7059
  2.7158   2.7187   2.7199   2.7345   2.7388   2.7478   2.7533   2.7594
  2.7623   2.7761   2.7770   2.7800   2.7872   2.7979   2.8046   2.8096
  2.8143   2.8157   2.8265   2.8396   2.8517   2.8533   2.8600   2.8663
  2.8700   2.8757   2.8824   2.8867   2.8938   2.9016   2.9075   2.9174
  2.9274   2.9314   2.9376   2.9484   2.9536   2.9588   2.9674   2.9784
  2.9931   2.9982   3.0082   3.0166   3.0262   3.0393   3.0565   3.0642
  3.0783   3.0865   3.0954   3.1065   3.1157   3.1226   3.1339   3.1441
  3.1554   3.1588   3.1714   3.1964   3.2219   3.2388   3.2570   3.2894
  3.3019   3.3208   3.3516   3.3612   3.3809   3.3837   3.4032   3.4127
  3.4460   3.4908   3.4979   3.5063   3.5118   3.5160   3.5293   3.5315
  3.5371   3.5428   3.5470   3.5549   3.5632   3.5683   3.5713   3.5770
  3.5873   3.5896   3.5936   3.5963   3.6098   3.6111   3.6176   3.6191
  3.6245   3.6285   3.6325   3.6360   3.6412   3.6455   3.6531   3.6551
  3.6618   3.6678   3.6784   3.6840   3.6887   3.7039   3.7128   3.7295
  3.7410   3.7484   3.7548   3.7631   3.7705   3.7783   3.7816   3.7934
  3.8013   3.8076   3.8101   3.8344   3.8460   3.8583   3.8611   3.8771
  3.8827   3.8951   3.8986   3.9134   3.9334   3.9456   3.9523   3.9646
  3.9829   3.9987   4.0151   4.0236   4.0525   4.0616   4.0698   4.0800
  4.0878   4.0932   4.1270   4.1355   4.1703   4.1971   4.2052   4.2366
  4.2548   4.3010   4.3177   4.3578   4.4168   4.4670   4.5731   4.6298
  4.6687   4.7566   4.7793
 --------------------------------------------------------------
 
          Ground-State Mulliken Net Atomic Charges

     Atom                 Charge (a.u.)    Spin (a.u.)
  --------------------------------------------------------
      1 N                     1.040250      -0.001033
      2 C                     1.077197      -0.000579
      3 H                    -0.587619       0.000052
      4 N                     0.295079      -0.005888
      5 H                    -0.074349      -0.000264
      6 C                     0.980785      -0.000034
      7 O                    -0.906206      -0.000002
      8 C                     0.122498       0.005314
      9 O                    -0.921373       0.000556
     10 C                    -1.051571      -0.007080
     11 C                     1.548008       0.004121
     12 H                    -0.109300      -0.000495
     13 H                    -0.500771       0.000143
     14 H                    -0.097681       0.001085
     15 C                     1.627207       0.003295
     16 H                    -0.653197       0.001953
     17 H                    -0.505634       0.001588
     18 C                    -0.103096       0.026309
     19 C                     1.020776       0.001414
     20 C                     1.544722      -0.003462
     21 H                    -0.443484       0.000594
     22 H                    -0.708476      -0.000122
     23 C                     0.121166       0.001408
     24 O                    -0.814698      -0.000301
     25 N                     0.128363       0.000470
     26 H                     0.053066       0.000433
     27 C                     0.841110      -0.000200
     28 O                    -0.888642       0.000005
     29 N                     1.084690       0.005503
     30 C                    -1.370622      -0.010582
     31 C                     2.037680       0.003951
     32 H                    -0.287362       0.000375
     33 H                    -0.161955       0.000466
     34 H                    -0.471782      -0.000221
     35 C                     1.263519      -0.000903
     36 H                    -0.752273       0.000754
     37 H                    -0.645262       0.000312
     38 C                     1.383340      -0.000661
     39 H                    -1.145493       0.004233
     40 H                    -0.617125      -0.000990
     41 C                     1.373791       0.000231
     42 H                    -0.624231       0.000075
     43 H                    -0.482070      -0.000108
     44 C                     1.108621      -0.001080
     45 H                    -0.448123       0.000066
     46 H                    -0.667617      -0.000058
     47 C                     1.088274       0.000170
     48 H                    -0.722882      -0.000039
     49 C                     1.227672      -0.000017
     50 H                    -0.499415      -0.000090
     51 H                    -0.498441      -0.000007
     52 C                     1.166655       0.002543
     53 H                    -0.509558       0.001101
     54 H                    -0.778136       0.001473
     55 C                     1.398720      -0.003581
     56 H                    -0.703195       0.001601
     57 H                    -0.670641       0.000475
     58 C                     0.892349       0.001666
     59 H                    -0.713154      -0.000369
     60 H                    -0.627799       0.000012
     61 O                    -0.888753       0.000000
     62 O                    -0.877329      -0.000029
     63 O                    -0.834056       0.222985
     64 Fe                    2.121451       4.196781
     65 O                    -0.931027       0.095625
     66 O                    -0.829885       0.171269
     67 O                    -0.780808       0.064956
     68 O                    -1.182248       0.122019
     69 O                    -0.892138       0.010935
     70 O                    -0.567512       0.079878
  --------------------------------------------------------
  Sum of atomic charges =    -3.000000
  Sum of spin   charges =     5.000000

 -----------------------------------------------------------------
                    Cartesian Multipole Moments
 -----------------------------------------------------------------
    Charge (ESU x 10^10)
               -14.4096
    Dipole Moment (Debye)
         X      -4.6401      Y      29.1068      Z      -6.7320
       Tot      30.2333
    Quadrupole Moments (Debye-Ang)
        XX    -524.9614     XY      14.5294     YY    -321.7483
        XZ     -50.9013     YZ     -39.7193     ZZ    -349.5768
    Octopole Moments (Debye-Ang^2)
       XXX    -833.9797    XXY     898.2124    XYY    -201.9752
       YYY     427.6426    XXZ     186.5006    XYZ      67.9036
       YYZ      62.5868    XZZ     219.1369    YZZ     224.0129
       ZZZ    -116.7628
    Hexadecapole Moments (Debye-Ang^3)
      XXXX  -27372.5229   XXXY    3947.8476   XXYY   -5970.4000
      XYYY    1630.0555   YYYY   -8437.9646   XXXZ   -1432.1145
      XXYZ    -704.8424   XYYZ    -285.1562   YYYZ    -482.7447
      XXZZ   -4496.0577   XYZZ      60.8199   YYZZ   -2456.1341
      XZZZ    -478.1280   YZZZ    -305.7345   ZZZZ   -5416.4805
 -----------------------------------------------------------------
 Total job time:  304958.31s(wall), 5398205.74s(cpu) 
 Fri Aug 18 03:03:55 2023

        *************************************************************
        *                                                           *
        *  Thank you very much for using Q-Chem.  Have a nice day.  *
        *                                                           *
        *************************************************************


