
Running Job 1 of 1 C_FeAB_N_ccL_3sextet_SfS_tpssh_augccpvdz_pcmH2O_tddft100.in
qchem C_FeAB_N_ccL_3sextet_SfS_tpssh_augccpvdz_pcmH2O_tddft100.in_2780304.0 /data/scratch/C_FeAB_N_ccL_3sextet_SfS_tpssh_augccpvdz_pcmH2O_tddft10020240523080459/ 0
/opt/qchem/6.0.1/exe/qcprog.exe_s C_FeAB_N_ccL_3sextet_SfS_tpssh_augccpvdz_pcmH2O_tddft100.in_2780304.0 /data/scratch/C_FeAB_N_ccL_3sextet_SfS_tpssh_augccpvdz_pcmH2O_tddft10020240523080459/
                  Welcome to Q-Chem
     A Quantum Leap Into The Future Of Chemistry


 Q-Chem 6.0, Q-Chem, Inc., Pleasanton, CA (2022)

 E. Epifanovsky,  A. T. B. Gilbert,  Xintian Feng,  Joonho Lee,  Yuezhi Mao,  
 N. Mardirossian,  P. Pokhilko,  A. White,  M. Wormit,  M. P. Coons,  
 A. L. Dempwolff,  Zhengting Gan,  D. Hait,  P. R. Horn,  L. D. Jacobson,  
 I. Kaliman,  J. Kussmann,  A. W. Lange,  Ka Un Lao,  D. S. Levine,  Jie Liu,  
 S. C. McKenzie,  A. F. Morrison,  K. Nanda,  F. Plasser,  D. R. Rehn,  
 M. L. Vidal,  Zhi-Qiang You,  Ying Zhu,  B. Alam,  B. Albrecht,  
 A. Aldossary,  E. Alguire,  J. H. Andersen,  V. Athavale,  D. Barton,  
 K. Begam,  A. Behn,  N. Bellonzi,  Y. A. Bernard,  E. J. Berquist,  
 H. Burton,  A. Carreras,  K. Carter-Fenk,  Romit Chakraborty,  
 Chandrima Chakravarty,  Junhan Chen,  A. D. Chien,  K. D. Closser,  
 V. Cofer-Shabica,  L. Cunha,  S. Dasgupta,  Jia Deng,  M. de Wergifosse,  
 M. Diedenhofen,  Hainam Do,  S. Ehlert,  Po-Tung Fang,  S. Fatehi,  
 Qingguo Feng,  T. Friedhoff,  B. Ganoe,  J. Gayvert,  Qinghui Ge,  
 G. Gidofalvi,  M. Goldey,  J. Gomes,  C. Gonzalez-Espinoza,  S. Gulania,  
 A. Gunina,  J. A. Gyamfi,  M. W. D. Hanson-Heine,  P. H. P. Harbach,  
 A. W. Hauser,  M. F. Herbst,  M. Hernandez Vera,  M. Hodecker,  
 Z. C. Holden,  S. Houck,  Xunkun Huang,  Kerwin Hui,  B. C. Huynh,  
 K. Ikeda,  M. Ivanov,  Hyunjun Ji,  Zuxin Jin,  Hanjie Jiang,  B. Kaduk,  
 S. Kaehler,  R. Kang,  K. Khistyaev,  Jaehoon Kim,  Yongbin Kim,  
 P. Klunzinger,  Z. Koczor-Benda,  Joong Hoon Koh,  D. Kosenkov,  
 Saikiran Kotaru,  L. Koulias,  T. Kowalczyk,  C. M. Krauter,  K. Kue,  
 A. Kunitsa,  T. Kus,  A. Landau,  K. V. Lawler,  D. Lefrancois,  S. Lehtola,  
 Rain Li,  Shaozhi Li,  Yi-Pei Li,  Jiashu Liang,  M. Liebenthal,  
 Hung-Hsuan Lin,  You-Sheng Lin,  Fenglai Liu,  Kuan-Yu Liu,  
 M. Loipersberger,  A. Luenser,  C. Malbon,  A. Manjanath,  P. Manohar,  
 E. Mansoor,  S. F. Manzer,  Shan-Ping Mao,  A. V. Marenich,  T. Markovich,  
 S. Mason,  F. Matz,  S. A. Maurer,  P. F. McLaughlin,  M. F. S. J. Menger,  
 J.-M. Mewes,  S. A. Mewes,  P. Morgante,  Mohammad Mostafanejad,  
 J. W. Mullinax,  K. J. Oosterbaan,  G. Paran,  V. Parravicini,  
 Alexander C. Paul,  Suranjan K. Paul,  F. Pavosevic,  Zheng Pei,  S. Prager,  
 E. I. Proynov,  E. Ramos,  B. Rana,  A. E. Rask,  A. Rettig,  R. M. Richard,  
 F. Rob,  E. Rossomme,  T. Scheele,  M. Scheurer,  M. Schneider,  
 P. E. Schneider,  N. Sergueev,  S. M. Sharada,  Hengyuan Shen,  
 W. Skomorowski,  D. W. Small,  C. J. Stein,  Yingli Su,  Yu-Chuan Su,  
 E. J. Sundstrom,  Zhen Tao,  J. Thirman,  Hung-Yi Tsai,  T. Tsuchimochi,  
 N. M. Tubman,  C. Utku,  S. P. Veccham,  O. Vydrov,  J. Wenzel,  
 Jonathan Wong,  J. Witte,  A. Yamada,  Chou-Hsun Yang,  Kun Yao,  
 S. Yeganeh,  S. R. Yost,  A. Zech,  F. Zeller,  Igor Ying Zhang,  
 Xing Zhang,  Yu Zhang,  D. Zuev,  A. Aspuru-Guzik,  A. T. Bell,  
 N. A. Besley,  K. B. Bravaya,  B. R. Brooks,  D. Casanova,  Jeng-Da Chai,  
 Hsing-Ta Chen,  S. Coriani,  C. J. Cramer,  A. E. DePrince, III,  
 R. A. DiStasio Jr.,  A. Dreuw,  B. D. Dunietz,  T. R. Furlani,  
 W. A. Goddard III,  S. Grimme,  S. Hammes-Schiffer,  T. Head-Gordon,  
 W. J. Hehre,  Chao-Ping Hsu,  T.-C. Jagau,  Yousung Jung,  A. Klamt,  
 Jing Kong,  D. S. Lambrecht,  Xiangyuan Li,  WanZhen Liang,  N. J. Mayhall,  
 C. W. McCurdy,  J. B. Neaton,  T. Neudecker,  C. Ochsenfeld,  
 J. A. Parkhill,  R. Peverati,  V. A. Rassolov,  Haisheng Ren,  Yihan Shao,  
 L. V. Slipchenko,  R. P. Steele,  J. E. Subotnik,  A. J. W. Thom,  
 A. Tkatchenko,  D. G. Truhlar,  T. Van Voorhis,  Fan Wang,  
 T. A. Wesolowski,  K. B. Whaley,  H. L. Woodcock III,  P. M. Zimmerman,  
 S. Faraji,  P. M. W. Gill,  M. Head-Gordon,  J. M. Herbert,  A. I. Krylov

 Contributors to earlier versions of Q-Chem not listed above: 
 R. D. Adamson,  B. Austin,  R. Baer,  J. Baker,  G. J. O. Beran,  
 K. Brandhorst,  S. T. Brown,  E. F. C. Byrd,  Arup K. Chakraborty,  
 G. K. L. Chan,  Chun-Min Chang,  Yunqing Chen,  C.-L. Cheng,  
 Siu Hung Chien,  D. M. Chipman,  D. L. Crittenden,  H. Dachsel,  
 R. J. Doerksen,  A. D. Dutoi,  R. G. Edgar,  J. Fosso-Tande,  
 L. Fusti-Molnar,  D. Ghosh,  A. Ghysels,  A. Golubeva-Zadorozhnaya,  
 J. Gonthier,  M. S. Gordon,  S. R. Gwaltney,  G. Hawkins,  J. E. Herr,  
 A. Heyden,  S. Hirata,  E. G. Hohenstein,  G. Kedziora,  F. J. Keil,  
 C. Kelley,  Jihan Kim,  R. A. King,  R. Z. Khaliullin,  P. P. Korambath,  
 W. Kurlancheek,  A. Laurent,  A. M. Lee,  M. S. Lee,  S. V. Levchenko,  
 Ching Yeh Lin,  D. Liotard,  E. Livshits,  R. C. Lochan,  I. Lotan,  
 L. A. Martinez-Martinez,  P. E. Maslen,  N. Nair,  D. P. O'Neill,  
 D. Neuhauser,  E. Neuscamman,  C. M. Oana,  R. Olivares-Amaya,  R. Olson,  
 T. M. Perrine,  B. Peters,  P. A. Pieniazek,  A. Prociuk,  Y. M. Rhee,  
 J. Ritchie,  M. A. Rohrdanz,  E. Rosta,  N. J. Russ,  H. F. Schaefer III,  
 M. W. Schmidt,  N. E. Schultz,  S. Sharma,  N. Shenvi,  C. D. Sherrill,  
 A. C. Simmonett,  A. Sodt,  T. Stein,  D. Stuck,  K. S. Thanthiriwatte,  
 V. Vanovschi,  L. Vogt,  Tao Wang,  A. Warshel,  M. A. Watson,  
 C. F. Williams,  Q. Wu,  X. Xu,  Jun Yang,  W. Zhang,  Yan Zhao

   Please cite Q-Chem as follows:
  "Software for the frontiers of quantum chemistry:
   An overview of developments in the Q-Chem 5 package"
   J. Chem. Phys. 155, 084801 (2021)
   https://doi.org/10.1063/5.0055522 (open access)

 Q-Chem 6.0.2 for Intel X86 EM64T Linux

 Parts of Q-Chem use Armadillo 9.900.5 (Nocturnal Misbehaviour).
 http://arma.sourceforge.net/

 Q-Chem begins on Thu May 23 08:05:00 2024  

 Host: 
0

     Scratch files written to /data/scratch/C_FeAB_N_ccL_3sextet_SfS_tpssh_augccpvdz_pcmH2O_tddft10020240523080459//
 Dec722 |scratch|qcdevops|jenkins|workspace|build_RNUM 8907   
 Processing $rem in /opt/qchem/6.0.1/config/preferences:
 Processing $rem in /home/sgardner/.qchemrc:
 Symmetry turned off for PCM/SM12/SMD calculation

 Checking the input file for inconsistencies... 	...done.

--------------------------------------------------------------
User input:
--------------------------------------------------------------
$molecule
-3 6
C   -1.2707618    1.8236128   -1.7894232
C   -4.1298962   -1.9963951   -0.0127179
H   -4.7974824   -2.7497768    0.4389974
N   -2.8217108   -2.0728406    0.6148170
H   -2.0623225   -2.1558393   -0.0587301
C   -3.9548746   -2.3214646   -1.5266513
O   -5.0176642   -2.4851597   -2.1748766
C   -2.5590625   -2.0123775    1.9334073
O   -3.4386862   -1.8291199    2.7934853
N   -1.9753915    2.4670196   -0.8612666
C   -1.1052908   -2.2534489    2.3091249
H   -0.7193587   -3.1144519    1.7427163
H   -1.0845038   -2.4959403    3.3787593
C   -0.1340873   -1.0747334    2.0673086
C   -0.3491964    0.0737528    3.0975353
C    1.3200824   -1.5873434    2.3564147
H    1.3147302   -2.1674503    3.2898244
H    1.9703221   -0.7122857    2.4960647
C    1.9030723   -2.4673411    1.2551910
O    1.7426025   -3.7025684    1.2380636
N    2.6073670   -1.7790787    0.3419269
H    2.5933337   -0.7592319    0.4389942
C    4.9475542   -2.0081119   -0.5063286
O    5.7092355   -2.4039548   -1.4284055
C    2.3604989    3.0390670   -0.3072156
N    2.8875707    1.8188741   -0.2031070
C    4.0575187    1.2459040   -0.8701617
H    4.4673875    0.4987293   -0.1763881
H    4.8070584    2.0410064   -0.9861464
C    3.0780272    4.1076788   -1.0844937
H    2.6966634    5.0855305   -0.7637050
H    4.1664280    4.0739247   -0.9422892
C    3.7515258    0.6321045   -2.2496043
H    3.4971533    1.4660665   -2.9257053
H    4.6967290    0.2028509   -2.6262279
C    2.6153005   -0.4097384   -2.3384451
H    1.7938456   -0.1002790   -1.6790134
H    2.2056773   -0.3433819   -3.3615637
C    2.9394361   -1.8974093   -2.1117546
H    2.0164791   -2.4600545   -2.3391851
H    3.7076718   -2.2313422   -2.8266563
C    3.4291171   -2.3284107   -0.7154688
H    3.3367792   -3.4240547   -0.6537503
C   -4.2798859    1.8995737   -0.1991654
H   -4.1236674    2.0139040    0.8853297
H   -5.3283565    2.1736222   -0.4079410
C   -1.7346632    1.7012233   -3.2119460
H   -2.3956382    2.5140906   -3.5335810
H   -0.8463870    1.6745633   -3.8576156
C   -3.9865872    0.4591554   -0.6064303
H   -2.9198298    0.2631952   -0.4195921
H   -4.1445040    0.3423322   -1.6925807
C   -4.7829328   -0.6071333    0.1409314
H   -4.8336215   -0.3649691    1.2140874
H   -5.8154993   -0.6674588   -0.2395276
O   -2.7699739   -2.3466033   -1.9700561
O    5.2818001   -1.3994982    0.5465234
O   -0.2483399   -0.5596158    0.7760396
Fe    0.1789152    1.3217754    0.6180485
O   -0.1315048    1.2659549    2.6111921
O   -0.1763425    1.2671982   -1.4440808
O   -1.5103949    2.4022777    0.4201851
O    1.2368676    3.2615294    0.2417170
O   -0.6305450   -0.1559147    4.2761686
O    2.1376423    0.9187486    0.4982359
H   -2.2688269    0.7430335   -3.3258768
H    2.8700916    3.9882928   -2.1604750
C   -3.3724322    2.8865965   -0.9475094
H   -3.4448394    3.8971381   -0.5174492
H   -3.6493932    2.9440107   -2.0068329
$end

$rem
BASIS  =  gen
CIS_N_ROOTS  =  100
CORRELATION  =  TPSS
EXCHANGE  =  TPSSH
GUI  =  2
JOB_TYPE  =  SP
SCF_CONVERGENCE  =  8
SOLVENT_METHOD  =  PCM
UNRESTRICTED  =  1
MEM_TOTAL  =  30000
$end

$pcm
THEORY  CPCM
$end

$solvent
DIELECTRIC  78.39
$end

$van_der_waals
26   2.44
$end

!----------------------------------------------------------------------
! Basis Set Exchange
! Basis set: aug-cc-pVDZ
!----------------------------------------------------------------------

$rem
BASIS GEN
PURECART 11
$end

$basis
H     0
S   4   1.00
1.301000D+01           1.968500D-02
1.962000D+00           1.379770D-01
4.446000D-01           4.781480D-01
1.220000D-01           5.012400D-01
S   1   1.00
1.220000D-01           1.000000D+00
S   1   1.00
0.0297400              1.0000000
P   1   1.00
7.270000D-01           1.0000000
P   1   1.00
0.1410000              1.0000000
****
C     0
S   9   1.00
6.665000D+03           6.920000D-04
1.000000D+03           5.329000D-03
2.280000D+02           2.707700D-02
6.471000D+01           1.017180D-01
2.106000D+01           2.747400D-01
7.495000D+00           4.485640D-01
2.797000D+00           2.850740D-01
5.215000D-01           1.520400D-02
1.596000D-01          -3.191000D-03
S   9   1.00
6.665000D+03          -1.460000D-04
1.000000D+03          -1.154000D-03
2.280000D+02          -5.725000D-03
6.471000D+01          -2.331200D-02
2.106000D+01          -6.395500D-02
7.495000D+00          -1.499810D-01
2.797000D+00          -1.272620D-01
5.215000D-01           5.445290D-01
1.596000D-01           5.804960D-01
S   1   1.00
1.596000D-01           1.000000D+00
S   1   1.00
0.0469000              1.0000000
P   4   1.00
9.439000D+00           3.810900D-02
2.002000D+00           2.094800D-01
5.456000D-01           5.085570D-01
1.517000D-01           4.688420D-01
P   1   1.00
1.517000D-01           1.000000D+00
P   1   1.00
0.0404100              1.0000000
D   1   1.00
5.500000D-01           1.0000000
D   1   1.00
0.1510000              1.0000000
****
N     0
S   9   1.00
9.046000D+03           7.000000D-04
1.357000D+03           5.389000D-03
3.093000D+02           2.740600D-02
8.773000D+01           1.032070D-01
2.856000D+01           2.787230D-01
1.021000D+01           4.485400D-01
3.838000D+00           2.782380D-01
7.466000D-01           1.544000D-02
2.248000D-01          -2.864000D-03
S   9   1.00
9.046000D+03          -1.530000D-04
1.357000D+03          -1.208000D-03
3.093000D+02          -5.992000D-03
8.773000D+01          -2.454400D-02
2.856000D+01          -6.745900D-02
1.021000D+01          -1.580780D-01
3.838000D+00          -1.218310D-01
7.466000D-01           5.490030D-01
2.248000D-01           5.788150D-01
S   1   1.00
2.248000D-01           1.000000D+00
S   1   1.00
0.0612400              1.0000000
P   4   1.00
1.355000D+01           3.991900D-02
2.917000D+00           2.171690D-01
7.973000D-01           5.103190D-01
2.185000D-01           4.622140D-01
P   1   1.00
2.185000D-01           1.000000D+00
P   1   1.00
0.0561100              1.0000000
D   1   1.00
8.170000D-01           1.0000000
D   1   1.00
0.2300000              1.0000000
****
O     0
S   9   1.00
1.172000D+04           7.100000D-04
1.759000D+03           5.470000D-03
4.008000D+02           2.783700D-02
1.137000D+02           1.048000D-01
3.703000D+01           2.830620D-01
1.327000D+01           4.487190D-01
5.025000D+00           2.709520D-01
1.013000D+00           1.545800D-02
3.023000D-01          -2.585000D-03
S   9   1.00
1.172000D+04          -1.600000D-04
1.759000D+03          -1.263000D-03
4.008000D+02          -6.267000D-03
1.137000D+02          -2.571600D-02
3.703000D+01          -7.092400D-02
1.327000D+01          -1.654110D-01
5.025000D+00          -1.169550D-01
1.013000D+00           5.573680D-01
3.023000D-01           5.727590D-01
S   1   1.00
3.023000D-01           1.000000D+00
S   1   1.00
0.0789600              1.0000000
P   4   1.00
1.770000D+01           4.301800D-02
3.854000D+00           2.289130D-01
1.046000D+00           5.087280D-01
2.753000D-01           4.605310D-01
P   1   1.00
2.753000D-01           1.000000D+00
P   1   1.00
0.0685600              1.0000000
D   1   1.00
1.185000D+00           1.0000000
D   1   1.00
0.3320000              1.0000000
****
Fe     0
S   20   1.00
4.316265D+06           8.048803D-06
6.463424D+05           6.258306D-05
1.470897D+05           3.290239D-04
4.166152D+04           1.387355D-03
1.359077D+04           5.023256D-03
4.905750D+03           1.610140D-02
1.912746D+03           4.590034D-02
7.926043D+02           1.136154D-01
3.448065D+02           2.283869D-01
1.558999D+02           3.221159D-01
7.223091D+01           2.383661D-01
3.272506D+01           7.404667D-02
1.566762D+01           9.214197D-02
7.503483D+00           9.339790D-02
3.312223D+00           1.573965D-02
1.558471D+00          -4.186682D-04
6.839140D-01           5.376318D-05
1.467570D-01          -3.816654D-05
7.058300D-02           4.319603D-05
3.144900D-02          -3.401019D-06
S   20   1.00
4.316265D+06          -4.155954D-06
6.463424D+05          -3.231401D-05
1.470897D+05          -1.699525D-04
4.166152D+04          -7.171369D-04
1.359077D+04          -2.603625D-03
4.905750D+03          -8.399109D-03
1.912746D+03          -2.434109D-02
7.926043D+02          -6.251948D-02
3.448065D+02          -1.365929D-01
1.558999D+02          -2.312707D-01
7.223091D+01          -2.383734D-01
3.272506D+01           3.123837D-02
1.566762D+01           5.086818D-01
7.503483D+00           4.987695D-01
3.312223D+00           9.033552D-02
1.558471D+00          -6.005337D-03
6.839140D-01           2.312454D-04
1.467570D-01          -5.643680D-04
7.058300D-02           4.992260D-04
3.144900D-02          -1.015293D-04
S   20   1.00
4.316265D+06           9.532178D-07
6.463424D+05           7.414605D-06
1.470897D+05           3.898393D-05
4.166152D+04           1.647152D-04
1.359077D+04           5.985980D-04
4.905750D+03           1.942390D-03
1.912746D+03           5.687237D-03
7.926043D+02           1.501329D-02
3.448065D+02           3.452455D-02
1.558999D+02           6.495820D-02
7.223091D+01           7.716194D-02
3.272506D+01          -1.873411D-02
1.566762D+01          -3.009185D-01
7.503483D+00          -4.554661D-01
3.312223D+00           1.286463D-01
1.558471D+00           7.183316D-01
6.839140D-01           4.051743D-01
1.467570D-01           2.168227D-02
7.058300D-02          -8.343566D-03
3.144900D-02           3.658979D-03
S   20   1.00
4.316265D+06          -2.063008D-07
6.463424D+05          -1.604169D-06
1.470897D+05          -8.438437D-06
4.166152D+04          -3.563151D-05
1.359077D+04          -1.295998D-04
4.905750D+03          -4.201534D-04
1.912746D+03          -1.231954D-03
7.926043D+02          -3.248922D-03
3.448065D+02          -7.493717D-03
1.558999D+02          -1.410102D-02
7.223091D+01          -1.691600D-02
3.272506D+01           4.218996D-03
1.566762D+01           6.833810D-02
7.503483D+00           1.098201D-01
3.312223D+00          -4.009005D-02
1.558471D+00          -2.174739D-01
6.839140D-01          -2.465135D-01
1.467570D-01           2.731435D-01
7.058300D-02           5.748321D-01
3.144900D-02           3.012713D-01
S   20   1.00
4.316265D+06          -4.009367D-07
6.463424D+05          -3.189255D-06
1.470897D+05          -1.623079D-05
4.166152D+04          -7.157920D-05
1.359077D+04          -2.463958D-04
4.905750D+03          -8.544907D-04
1.912746D+03          -2.307593D-03
7.926043D+02          -6.728292D-03
3.448065D+02          -1.366165D-02
1.558999D+02          -3.062240D-02
7.223091D+01          -2.631137D-02
3.272506D+01          -9.760183D-03
1.566762D+01           1.801906D-01
7.503483D+00           1.529634D-01
3.312223D+00           5.505413D-02
1.558471D+00          -9.551364D-01
6.839140D-01           2.586813D-01
1.467570D-01           1.834049D+00
7.058300D-02          -9.333240D-01
3.144900D-02          -6.981605D-01
S   1   1.00
3.144900D-02           1.000000D+00
S   1   1.00
1.401000D-02           1.000000D+00
P   16   1.00
1.774569D+04           4.100000D-05
4.200721D+03           3.690000D-04
1.364429D+03           2.129000D-03
5.220806D+02           9.369000D-03
2.214595D+02           3.309700D-02
1.009096D+02           9.443100D-02
4.840115D+01           2.080770D-01
2.398536D+01           3.323330D-01
1.218250D+01           3.329870D-01
6.242298D+00           1.568430D-01
3.110944D+00           2.154900D-02
1.509958D+00          -2.095000D-03
7.108450D-01          -1.739000D-03
2.731900D-01          -3.000000D-04
1.042330D-01           2.900000D-05
3.829100D-02          -1.100000D-05
P   16   1.00
1.774569D+04          -1.500000D-05
4.200721D+03          -1.300000D-04
1.364429D+03          -7.510000D-04
5.220806D+02          -3.329000D-03
2.214595D+02          -1.191200D-02
1.009096D+02          -3.493300D-02
4.840115D+01          -7.998900D-02
2.398536D+01          -1.346360D-01
1.218250D+01          -1.385980D-01
6.242298D+00           3.027800D-02
3.110944D+00           3.332160D-01
1.509958D+00           4.561530D-01
7.108450D-01           2.850510D-01
2.731900D-01           4.614400D-02
1.042330D-01          -3.249000D-03
3.829100D-02           1.357000D-03
P   16   1.00
1.774569D+04           5.000000D-06
4.200721D+03           4.200000D-05
1.364429D+03           2.410000D-04
5.220806D+02           1.085000D-03
2.214595D+02           3.831000D-03
1.009096D+02           1.142300D-02
4.840115D+01           2.579200D-02
2.398536D+01           4.481800D-02
1.218250D+01           4.459800D-02
6.242298D+00          -1.117700D-02
3.110944D+00          -1.381340D-01
1.509958D+00          -1.882850D-01
7.108450D-01          -1.073990D-01
2.731900D-01           4.448630D-01
1.042330D-01           6.402390D-01
3.829100D-02           6.445700D-02
P   16   1.00
1.774569D+04           3.000000D-06
4.200721D+03           2.900000D-05
1.364429D+03           1.650000D-04
5.220806D+02           7.340000D-04
2.214595D+02           2.626000D-03
1.009096D+02           7.725000D-03
4.840115D+01           1.773300D-02
2.398536D+01           3.005500D-02
1.218250D+01           3.109400D-02
6.242298D+00          -1.004800D-02
3.110944D+00          -8.830600D-02
1.509958D+00          -1.298240D-01
7.108450D-01          -7.693700D-02
2.731900D-01           2.126610D-01
1.042330D-01           5.730610D-01
3.829100D-02           3.696510D-01
P   1   1.00
3.829100D-02           1.000000D+00
P   1   1.00
1.407000D-02           1.000000D+00
D   8   1.00
1.133440D+02           3.530000D-03
3.364140D+01           2.578400D-02
1.233100D+01           9.911900D-02
4.994780D+00           2.390730D-01
2.072800D+00           3.571990D-01
8.307530D-01           3.621880D-01
3.091780D-01           2.364610D-01
1.001300D-01           6.011800D-02
D   8   1.00
1.133440D+02          -3.890000D-03
3.364140D+01          -2.844200D-02
1.233100D+01          -1.124290D-01
4.994780D+00          -2.742570D-01
2.072800D+00          -3.155460D-01
8.307530D-01           5.710900D-02
3.091780D-01           5.636040D-01
1.001300D-01           3.846370D-01
D   1   1.00
1.001300D-01           1.000000D+00
D   1   1.00
3.243000D-02           1.000000D+00
F   2   1.00
3.224300D+00           4.222490D-01
7.758000D-01           7.714680D-01
F   1   1.00
2.749000D-01           1.000000D+00
****
$end



--------------------------------------------------------------
 ----------------------------------------------------------------
             Standard Nuclear Orientation (Angstroms)
    I     Atom           X                Y                Z
 ----------------------------------------------------------------
    1      C      -1.2707618000     1.8236128000    -1.7894232000
    2      C      -4.1298962000    -1.9963951000    -0.0127179000
    3      H      -4.7974824000    -2.7497768000     0.4389974000
    4      N      -2.8217108000    -2.0728406000     0.6148170000
    5      H      -2.0623225000    -2.1558393000    -0.0587301000
    6      C      -3.9548746000    -2.3214646000    -1.5266513000
    7      O      -5.0176642000    -2.4851597000    -2.1748766000
    8      C      -2.5590625000    -2.0123775000     1.9334073000
    9      O      -3.4386862000    -1.8291199000     2.7934853000
   10      N      -1.9753915000     2.4670196000    -0.8612666000
   11      C      -1.1052908000    -2.2534489000     2.3091249000
   12      H      -0.7193587000    -3.1144519000     1.7427163000
   13      H      -1.0845038000    -2.4959403000     3.3787593000
   14      C      -0.1340873000    -1.0747334000     2.0673086000
   15      C      -0.3491964000     0.0737528000     3.0975353000
   16      C       1.3200824000    -1.5873434000     2.3564147000
   17      H       1.3147302000    -2.1674503000     3.2898244000
   18      H       1.9703221000    -0.7122857000     2.4960647000
   19      C       1.9030723000    -2.4673411000     1.2551910000
   20      O       1.7426025000    -3.7025684000     1.2380636000
   21      N       2.6073670000    -1.7790787000     0.3419269000
   22      H       2.5933337000    -0.7592319000     0.4389942000
   23      C       4.9475542000    -2.0081119000    -0.5063286000
   24      O       5.7092355000    -2.4039548000    -1.4284055000
   25      C       2.3604989000     3.0390670000    -0.3072156000
   26      N       2.8875707000     1.8188741000    -0.2031070000
   27      C       4.0575187000     1.2459040000    -0.8701617000
   28      H       4.4673875000     0.4987293000    -0.1763881000
   29      H       4.8070584000     2.0410064000    -0.9861464000
   30      C       3.0780272000     4.1076788000    -1.0844937000
   31      H       2.6966634000     5.0855305000    -0.7637050000
   32      H       4.1664280000     4.0739247000    -0.9422892000
   33      C       3.7515258000     0.6321045000    -2.2496043000
   34      H       3.4971533000     1.4660665000    -2.9257053000
   35      H       4.6967290000     0.2028509000    -2.6262279000
   36      C       2.6153005000    -0.4097384000    -2.3384451000
   37      H       1.7938456000    -0.1002790000    -1.6790134000
   38      H       2.2056773000    -0.3433819000    -3.3615637000
   39      C       2.9394361000    -1.8974093000    -2.1117546000
   40      H       2.0164791000    -2.4600545000    -2.3391851000
   41      H       3.7076718000    -2.2313422000    -2.8266563000
   42      C       3.4291171000    -2.3284107000    -0.7154688000
   43      H       3.3367792000    -3.4240547000    -0.6537503000
   44      C      -4.2798859000     1.8995737000    -0.1991654000
   45      H      -4.1236674000     2.0139040000     0.8853297000
   46      H      -5.3283565000     2.1736222000    -0.4079410000
   47      C      -1.7346632000     1.7012233000    -3.2119460000
   48      H      -2.3956382000     2.5140906000    -3.5335810000
   49      H      -0.8463870000     1.6745633000    -3.8576156000
   50      C      -3.9865872000     0.4591554000    -0.6064303000
   51      H      -2.9198298000     0.2631952000    -0.4195921000
   52      H      -4.1445040000     0.3423322000    -1.6925807000
   53      C      -4.7829328000    -0.6071333000     0.1409314000
   54      H      -4.8336215000    -0.3649691000     1.2140874000
   55      H      -5.8154993000    -0.6674588000    -0.2395276000
   56      O      -2.7699739000    -2.3466033000    -1.9700561000
   57      O       5.2818001000    -1.3994982000     0.5465234000
   58      O      -0.2483399000    -0.5596158000     0.7760396000
   59      Fe      0.1789152000     1.3217754000     0.6180485000
   60      O      -0.1315048000     1.2659549000     2.6111921000
   61      O      -0.1763425000     1.2671982000    -1.4440808000
   62      O      -1.5103949000     2.4022777000     0.4201851000
   63      O       1.2368676000     3.2615294000     0.2417170000
   64      O      -0.6305450000    -0.1559147000     4.2761686000
   65      O       2.1376423000     0.9187486000     0.4982359000
   66      H      -2.2688269000     0.7430335000    -3.3258768000
   67      H       2.8700916000     3.9882928000    -2.1604750000
   68      C      -3.3724322000     2.8865965000    -0.9475094000
   69      H      -3.4448394000     3.8971381000    -0.5174492000
   70      H      -3.6493932000     2.9440107000    -2.0068329000
 ----------------------------------------------------------------
 Nuclear Repulsion Energy =        6202.34095411 hartrees
 There are      164 alpha and      159 beta electrons
 Requested basis set is non-standard
 There are 520 shells and 1226 basis functions

 Total QAlloc Memory Limit  30000 MB
 Mega-Array Size       188 MB
 MEM_STATIC part       192 MB

 Using C-PCM dielectric factor f(eps) = (eps-1)/eps = 0.987243
No default van der Waals radius is available for Z = 26
	Found R = 2.4400 A in the $van_der_waals section
 Discretize the solute cavity surface with Lebedev spheres
	Using 110 Lebedev grid points for each H atom
	Using 194 Lebedev grid points for other atoms
	Atomic van der Waals radii (Bondi set) will be scaled by 1.20
 Using smooth SwiG surface discretization
 Remove points where switching function is < 1.0e-08
 Keep 4062 surface tesserae and discard 6998 interior tesserae
 Molecular Surface Area = 524.970 Angst**2

 A cutoff of  1.0D-12 yielded 122185 shell pairs
 There are    649105 function pairs (    739899 Cartesian)
 Smallest overlap matrix eigenvalue = 1.02E-06

 Scale SEOQF with 1.000000e-02/1.000000e-02/1.000000e-01

 Standard Electronic Orientation quadrupole field applied
 Nucleus-field energy     =    -0.0000000801 hartrees
 ================ Generating on-the-fly SAD Guess ================
 Attempting to make child job directory: /data/scratch/C_FeAB_N_ccL_3sextet_SfS_tpssh_augccpvdz_pcmH2O_tddft10020240523080459//Frg1/
 Attempting to make child job directory: /data/scratch/C_FeAB_N_ccL_3sextet_SfS_tpssh_augccpvdz_pcmH2O_tddft10020240523080459//Frg2/
 Attempting to make child job directory: /data/scratch/C_FeAB_N_ccL_3sextet_SfS_tpssh_augccpvdz_pcmH2O_tddft10020240523080459//Frg3/
 Attempting to make child job directory: /data/scratch/C_FeAB_N_ccL_3sextet_SfS_tpssh_augccpvdz_pcmH2O_tddft10020240523080459//Frg4/
 Attempting to make child job directory: /data/scratch/C_FeAB_N_ccL_3sextet_SfS_tpssh_augccpvdz_pcmH2O_tddft10020240523080459//Frg5/
 Creating input file /data/scratch/C_FeAB_N_ccL_3sextet_SfS_tpssh_augccpvdz_pcmH2O_tddft10020240523080459/Frg1.input
 using default PutDataFrgm: nothing
 calling putenv with: QCSCRATCH=/data/scratch/C_FeAB_N_ccL_3sextet_SfS_tpssh_augccpvdz_pcmH2O_tddft10020240523080459/ 
 Spawning Job For Fragment 0
 Done Job For Fragment 0
 calling putenv with: QCSCRATCH=/data/scratch 
 calling putenv with: QCTHREADS=20 
 Creating input file /data/scratch/C_FeAB_N_ccL_3sextet_SfS_tpssh_augccpvdz_pcmH2O_tddft10020240523080459/Frg2.input
 using default PutDataFrgm: nothing
 calling putenv with: QCSCRATCH=/data/scratch/C_FeAB_N_ccL_3sextet_SfS_tpssh_augccpvdz_pcmH2O_tddft10020240523080459/ 
 Spawning Job For Fragment 1
 Done Job For Fragment 1
 calling putenv with: QCSCRATCH=/data/scratch 
 calling putenv with: QCTHREADS=20 
 Creating input file /data/scratch/C_FeAB_N_ccL_3sextet_SfS_tpssh_augccpvdz_pcmH2O_tddft10020240523080459/Frg3.input
 using default PutDataFrgm: nothing
 calling putenv with: QCSCRATCH=/data/scratch/C_FeAB_N_ccL_3sextet_SfS_tpssh_augccpvdz_pcmH2O_tddft10020240523080459/ 
 Spawning Job For Fragment 2
 Done Job For Fragment 2
 calling putenv with: QCSCRATCH=/data/scratch 
 calling putenv with: QCTHREADS=20 
 Creating input file /data/scratch/C_FeAB_N_ccL_3sextet_SfS_tpssh_augccpvdz_pcmH2O_tddft10020240523080459/Frg4.input
 using default PutDataFrgm: nothing
 calling putenv with: QCSCRATCH=/data/scratch/C_FeAB_N_ccL_3sextet_SfS_tpssh_augccpvdz_pcmH2O_tddft10020240523080459/ 
 Spawning Job For Fragment 3
 Done Job For Fragment 3
 calling putenv with: QCSCRATCH=/data/scratch 
 calling putenv with: QCTHREADS=20 
 Creating input file /data/scratch/C_FeAB_N_ccL_3sextet_SfS_tpssh_augccpvdz_pcmH2O_tddft10020240523080459/Frg5.input
 using default PutDataFrgm: nothing
 calling putenv with: QCSCRATCH=/data/scratch/C_FeAB_N_ccL_3sextet_SfS_tpssh_augccpvdz_pcmH2O_tddft10020240523080459/ 
 Spawning Job For Fragment 4
 Done Job For Fragment 4
 calling putenv with: QCSCRATCH=/data/scratch 
 calling putenv with: QCTHREADS=20 
 Time for running child jobs:  CPU 0.02 s  wall 92.27 s
 ============= Method Specific SAD Guess Constructed =============
 Guess from on-the-fly superposition of atomic densities
 Warning: Energy on first SCF cycle will be non-variational

 -----------------------------------------------------------------------
  General SCF calculation program by
  Eric Jon Sundstrom, Paul Horn, Yuezhi Mao, Dmitri Zuev, Alec White,
  David Stuck, Shaama M.S., Shane Yost, Joonho Lee, David Small,
  Daniel Levine, Susi Lehtola, Hugh Burton, Evgeny Epifanovsky,
  Bang C. Huynh
 -----------------------------------------------------------------------
 Exchange:     0.1000 Hartree-Fock + 0.9000 TPSS
 Correlation:  1.0000 TPSS
 Using SG-2 standard quadrature grid
 using 20 threads for integral computing
 -------------------------------------------------------
 OpenMP Integral computing Module                
 Release: version 1.0, May 2013, Q-Chem Inc. Pittsburgh 
 -------------------------------------------------------
 C-PCM solvent model [f = (eps-1)/eps], solve by matrix inversion
 A unrestricted SCF calculation will be
 performed using DIIS
 SCF converges when DIIS error is below 1.0e-08
 ---------------------------------------
  Cycle       Energy         DIIS error
 ---------------------------------------
    1   -3331.1686327546      9.84e-03  
    2   -3316.7369738386      1.49e-03  
    3   -3304.2929045446      5.10e-03  
    4   -3312.3523171120      2.92e-03  
    5   -3317.6825323852      8.66e-04  
    6   -3317.9605427391      4.18e-04  
    7   -3318.0473789517      1.59e-04  
    8   -3318.0581521423      1.01e-04  
    9   -3318.0631281398      4.85e-05  
   10   -3318.0639763798      2.83e-05  
   11   -3318.0644673534      5.92e-06  
   12   -3318.0644852384      3.88e-06  
   13   -3318.0644947194      2.03e-06  
   14   -3318.0644977192      7.70e-07  
   15   -3318.0644984623      6.28e-07  
   16   -3318.0644987344      3.49e-07  
   17   -3318.0644988075      1.30e-07  
   18   -3318.0644988209      6.26e-08  
   19   -3318.0644988249      3.47e-08  
   20   -3318.0644988286      1.77e-08  
   21   -3318.0644988303      6.93e-09  Convergence criterion met
 ---------------------------------------
 SCF time:   CPU 291124.99s  wall 16507.00s 
<S^2> =          8.757251992

************** Final PCM Free Energy Summary **************
 G_electrostatic  =      -0.52871511 hartree =    -331.77373886 kcal/mol
 G_cavitation     =       0.00000000 hartree =       0.00000000 kcal/mol
 G_dispersion     =       0.00000000 hartree =       0.00000000 kcal/mol
 G_repulsion      =       0.00000000 hartree =       0.00000000 kcal/mol
 --------------------------------------------------
 Non-electrostatic Free Energy =       0.00000000 hartree =       0.00000000 kcal/mol
 Total                         =      -0.52871511 hartree =    -331.77373886 kcal/mol
 --------------------------------------------------
 SCF Energy (H0 + V/2)                       =   -3318.06449883 
 Solute Internal Energy (H0)                 =   -3317.53578372 
 Total Free Energy (H0 + V/2 + non-elec)     =   -3318.06449883 hartree
                                             = -2082116.89840491 kcal/mol
***********************************************************

 SCF   energy in the final basis set =    -3318.0644988303
 Total energy in the final basis set =    -3318.0644988303
 
 MAX_CIS_SUBSPACE fits in available memory
 Direct TDDFT/TDA calculation will be performed
 Exchange:     0.1000 Hartree-Fock + 0.9000 TPSS
 Correlation:  1.0000 TPSS
 Using SG-2 standard quadrature grid
 Adding PCM contribution to the XC response (LR-PCM)
 CIS energy converged when residual is below 10e- 6
 ---------------------------------------------------
 Iter    Rts Conv    Rts Left    Ttl Dev     Max Dev
 ---------------------------------------------------
   1         0         100      0.005523    0.000645
   2         0         100      0.001523    0.000098
   3        21          79      0.000475    0.000029
   4        71          29      0.000147    0.000012
   5        87          13      0.000052    0.000005
   6        99           1      0.000027    0.000001
   7       100           0      0.000024    0.000001    Roots Converged
 ---------------------------------------------------
 
 ---------------------------------------------------
         TDDFT/TDA Excitation Energies              
 ---------------------------------------------------

 Excited state   1: excitation energy (eV) =    2.0223
 Total energy for state  1:                 -3317.99018056 au
    <S**2>     :  8.7814
    Trans. Mom.: -0.0963 X   0.0224 Y   0.0087 Z
    Strength   :     0.0004878364
    D(  158) --> S(    1) amplitude =  0.1808 beta
    D(  159) --> S(    1) amplitude =  0.8378 beta
    D(  159) --> S(    2) amplitude = -0.4788 beta

 Excited state   2: excitation energy (eV) =    2.0585
 Total energy for state  2:                 -3317.98884896 au
    <S**2>     :  8.7808
    Trans. Mom.:  0.1617 X   0.0984 Y  -0.0529 Z
    Strength   :     0.0019478282
    D(  158) --> S(    1) amplitude =  0.9310 beta
    D(  158) --> S(    2) amplitude = -0.2639 beta
    D(  159) --> S(    1) amplitude = -0.1781 beta

 Excited state   3: excitation energy (eV) =    2.0786
 Total energy for state  3:                 -3317.98811088 au
    <S**2>     :  8.7852
    Trans. Mom.: -0.3810 X   0.0685 Y  -0.0239 Z
    Strength   :     0.0076587039
    D(  158) --> S(    2) amplitude = -0.1959 beta
    D(  159) --> S(    1) amplitude =  0.4860 beta
    D(  159) --> S(    2) amplitude =  0.8263 beta

 Excited state   4: excitation energy (eV) =    2.2503
 Total energy for state  4:                 -3317.98180182 au
    <S**2>     :  8.7740
    Trans. Mom.: -0.7912 X  -0.2465 Y   0.2236 Z
    Strength   :     0.0406176781
    D(  158) --> S(    1) amplitude =  0.2042 beta
    D(  158) --> S(    2) amplitude =  0.8397 beta
    D(  159) --> S(    2) amplitude =  0.2443 beta
    D(  159) --> S(    3) amplitude = -0.2911 beta

 Excited state   5: excitation energy (eV) =    2.3924
 Total energy for state  5:                 -3317.97658092 au
    <S**2>     :  8.7712
    Trans. Mom.:  0.0810 X  -0.0605 Y   0.1230 Z
    Strength   :     0.0014863842
    D(  156) --> S(    1) amplitude = -0.1715 beta
    D(  156) --> S(    2) amplitude =  0.2663 beta
    D(  158) --> S(    3) amplitude =  0.7847 beta
    D(  159) --> S(    3) amplitude =  0.4270 beta

 Excited state   6: excitation energy (eV) =    2.4558
 Total energy for state  6:                 -3317.97425107 au
    <S**2>     :  8.7766
    Trans. Mom.:  0.1062 X  -0.0689 Y   0.0762 Z
    Strength   :     0.0013143682
    D(  154) --> S(    1) amplitude =  0.2172 beta
    D(  156) --> S(    1) amplitude =  0.6055 beta
    D(  156) --> S(    2) amplitude =  0.3251 beta
    D(  157) --> S(    1) amplitude = -0.3342 beta
    D(  157) --> S(    2) amplitude = -0.1827 beta
    D(  158) --> S(    2) amplitude =  0.1535 beta
    D(  158) --> S(    3) amplitude = -0.2311 beta
    D(  159) --> S(    3) amplitude =  0.4344 beta

 Excited state   7: excitation energy (eV) =    2.4810
 Total energy for state  7:                 -3317.97332338 au
    <S**2>     :  8.7725
    Trans. Mom.:  0.1624 X  -0.6068 Y   0.4679 Z
    Strength   :     0.0372912472
    D(  156) --> S(    1) amplitude = -0.4089 beta
    D(  157) --> S(    1) amplitude =  0.2309 beta
    D(  158) --> S(    2) amplitude =  0.1547 beta
    D(  158) --> S(    3) amplitude = -0.4632 beta
    D(  159) --> S(    3) amplitude =  0.6619 beta

 Excited state   8: excitation energy (eV) =    2.5722
 Total energy for state  8:                 -3317.96997302 au
    <S**2>     :  8.7777
    Trans. Mom.:  0.2455 X   0.0667 Y  -0.0197 Z
    Strength   :     0.0041043871
    D(  154) --> S(    2) amplitude =  0.2028 beta
    D(  156) --> S(    1) amplitude = -0.2275 beta
    D(  156) --> S(    2) amplitude =  0.5922 beta
    D(  156) --> S(    3) amplitude =  0.2167 beta
    D(  157) --> S(    1) amplitude =  0.1836 beta
    D(  157) --> S(    2) amplitude = -0.4890 beta
    D(  158) --> S(    2) amplitude = -0.1949 beta
    D(  158) --> S(    3) amplitude = -0.2470 beta
    D(  159) --> S(    3) amplitude = -0.2122 beta

 Excited state   9: excitation energy (eV) =    2.6779
 Total energy for state  9:                 -3317.96608929 au
    <S**2>     :  8.7815
    Trans. Mom.:  0.0273 X   0.0471 Y  -0.0762 Z
    Strength   :     0.0005758331
    D(  156) --> S(    1) amplitude =  0.4432 beta
    D(  157) --> S(    1) amplitude =  0.8773 beta

 Excited state  10: excitation energy (eV) =    2.6964
 Total energy for state 10:                 -3317.96540969 au
    <S**2>     :  8.7768
    Trans. Mom.:  0.1034 X   0.1222 Y  -0.0211 Z
    Strength   :     0.0017230946
    D(  156) --> S(    2) amplitude =  0.5184 beta
    D(  157) --> S(    2) amplitude =  0.8232 beta

 Excited state  11: excitation energy (eV) =    2.8205
 Total energy for state 11:                 -3317.96084902 au
    <S**2>     :  8.7728
    Trans. Mom.: -0.0286 X   0.0383 Y   0.0616 Z
    Strength   :     0.0004204087
    D(  148) --> S(    1) amplitude =  0.2073 beta
    D(  150) --> S(    1) amplitude =  0.2012 beta
    D(  152) --> S(    1) amplitude =  0.3518 beta
    D(  154) --> S(    1) amplitude = -0.2752 beta
    D(  154) --> S(    3) amplitude =  0.2501 beta
    D(  156) --> S(    3) amplitude =  0.6197 beta
    D(  157) --> S(    3) amplitude = -0.3736 beta

 Excited state  12: excitation energy (eV) =    2.9220
 Total energy for state 12:                 -3317.95711622 au
    <S**2>     :  8.7761
    Trans. Mom.: -0.0282 X   0.1510 Y  -0.0661 Z
    Strength   :     0.0020025508
    D(  148) --> S(    1) amplitude = -0.2270 beta
    D(  150) --> S(    1) amplitude = -0.2231 beta
    D(  152) --> S(    1) amplitude = -0.4170 beta
    D(  152) --> S(    2) amplitude =  0.2031 beta
    D(  154) --> S(    1) amplitude =  0.5007 beta
    D(  154) --> S(    2) amplitude = -0.2205 beta
    D(  154) --> S(    3) amplitude =  0.1679 beta
    D(  156) --> S(    3) amplitude =  0.3201 beta
    D(  157) --> S(    3) amplitude = -0.3339 beta

 Excited state  13: excitation energy (eV) =    2.9562
 Total energy for state 13:                 -3317.95586000 au
    <S**2>     :  8.7817
    Trans. Mom.:  0.0060 X  -0.0038 Y   0.0034 Z
    Strength   :     0.0000044708
    D(  155) --> S(    1) amplitude =  0.9913 beta

 Excited state  14: excitation energy (eV) =    2.9640
 Total energy for state 14:                 -3317.95557352 au
    <S**2>     :  8.7765
    Trans. Mom.:  0.0128 X  -0.0595 Y   0.0128 Z
    Strength   :     0.0002803879
    D(  154) --> S(    2) amplitude = -0.1912 beta
    D(  155) --> S(    2) amplitude =  0.9602 beta

 Excited state  15: excitation energy (eV) =    2.9768
 Total energy for state 15:                 -3317.95510177 au
    <S**2>     :  8.7780
    Trans. Mom.: -0.0809 X  -0.0347 Y   0.0434 Z
    Strength   :     0.0007024988
    D(  148) --> S(    2) amplitude = -0.1877 beta
    D(  150) --> S(    2) amplitude = -0.2018 beta
    D(  152) --> S(    2) amplitude = -0.3788 beta
    D(  154) --> S(    1) amplitude =  0.2760 beta
    D(  154) --> S(    2) amplitude =  0.7170 beta
    D(  155) --> S(    2) amplitude =  0.2654 beta
    D(  156) --> S(    2) amplitude = -0.2190 beta

 Excited state  16: excitation energy (eV) =    3.0185
 Total energy for state 16:                 -3317.95357059 au
    <S**2>     :  8.7727
    Trans. Mom.:  0.0087 X   0.0486 Y  -0.0225 Z
    Strength   :     0.0002174973
    D(  154) --> S(    1) amplitude =  0.1544 beta
    D(  156) --> S(    3) amplitude =  0.4706 beta
    D(  157) --> S(    3) amplitude =  0.8399 beta

 Excited state  17: excitation energy (eV) =    3.0506
 Total energy for state 17:                 -3317.95238970 au
    <S**2>     :  8.7802
    Trans. Mom.:  0.0130 X  -0.0296 Y   0.0237 Z
    Strength   :     0.0001198927
    D(  148) --> S(    1) amplitude =  0.2474 beta
    D(  150) --> S(    1) amplitude =  0.2111 beta
    D(  151) --> S(    1) amplitude = -0.1708 beta
    D(  152) --> S(    1) amplitude =  0.4253 beta
    D(  154) --> S(    1) amplitude =  0.6480 beta
    D(  154) --> S(    2) amplitude = -0.2354 beta
    D(  156) --> S(    1) amplitude = -0.3257 beta

 Excited state  18: excitation energy (eV) =    3.1074
 Total energy for state 18:                 -3317.95030226 au
    <S**2>     :  8.7772
    Trans. Mom.:  0.0978 X   0.0293 Y  -0.0043 Z
    Strength   :     0.0007953807
    D(  148) --> S(    2) amplitude =  0.3017 beta
    D(  150) --> S(    2) amplitude =  0.2740 beta
    D(  151) --> S(    2) amplitude = -0.1924 beta
    D(  152) --> S(    1) amplitude =  0.1649 beta
    D(  152) --> S(    2) amplitude =  0.5828 beta
    D(  153) --> S(    2) amplitude =  0.2415 beta
    D(  154) --> S(    2) amplitude =  0.4697 beta
    D(  156) --> S(    2) amplitude = -0.2387 beta

 Excited state  19: excitation energy (eV) =    3.1716
 Total energy for state 19:                 -3317.94794625 au
    <S**2>     :  8.7818
    Trans. Mom.:  0.0210 X   0.0103 Y   0.0208 Z
    Strength   :     0.0000763450
    D(  153) --> S(    1) amplitude =  0.9801 beta

 Excited state  20: excitation energy (eV) =    3.1969
 Total energy for state 20:                 -3317.94701650 au
    <S**2>     :  8.7766
    Trans. Mom.: -0.0096 X  -0.0001 Y  -0.0188 Z
    Strength   :     0.0000349414
    D(  152) --> S(    2) amplitude = -0.1757 beta
    D(  153) --> S(    2) amplitude =  0.9634 beta

 Excited state  21: excitation energy (eV) =    3.2575
 Total energy for state 21:                 -3317.94478617 au
    <S**2>     :  8.7737
    Trans. Mom.:  0.0179 X  -0.2718 Y   0.1284 Z
    Strength   :     0.0072364315
    D(  148) --> S(    3) amplitude = -0.1972 beta
    D(  150) --> S(    3) amplitude = -0.2155 beta
    D(  151) --> S(    1) amplitude = -0.2561 beta
    D(  152) --> S(    3) amplitude = -0.3859 beta
    D(  154) --> S(    3) amplitude =  0.5335 beta
    D(  156) --> S(    3) amplitude = -0.1865 beta
    D(  158) --> S(    4) amplitude = -0.3244 beta
    D(  159) --> S(    4) amplitude =  0.2458 beta
    D(  159) --> S(    5) amplitude = -0.2618 beta

 Excited state  22: excitation energy (eV) =    3.2905
 Total energy for state 22:                 -3317.94357455 au
    <S**2>     :  8.7849
    Trans. Mom.:  0.0485 X   0.1217 Y  -0.0784 Z
    Strength   :     0.0018783705
    D(  151) --> S(    1) amplitude = -0.1971 beta
    D(  158) --> S(    4) amplitude = -0.3352 beta
    D(  158) --> S(    5) amplitude =  0.1662 beta
    D(  159) --> S(    4) amplitude =  0.4758 beta
    D(  159) --> S(    5) amplitude =  0.7079 beta

 Excited state  23: excitation energy (eV) =    3.2960
 Total energy for state 23:                 -3317.94337204 au
    <S**2>     :  8.7729
    Trans. Mom.:  0.0479 X   0.0291 Y  -0.0426 Z
    Strength   :     0.0003998985
    D(  155) --> S(    3) amplitude =  0.9825 beta

 Excited state  24: excitation energy (eV) =    3.3174
 Total energy for state 24:                 -3317.94258534 au
    <S**2>     :  8.7989
    Trans. Mom.:  0.0345 X  -0.0901 Y   0.0951 Z
    Strength   :     0.0014906946
    D(  151) --> S(    2) amplitude = -0.3889 beta
    D(  154) --> S(    3) amplitude = -0.2582 beta
    D(  156) --> S(    3) amplitude =  0.1709 beta
    D(  158) --> S(    5) amplitude = -0.5498 beta
    D(  159) --> S(    4) amplitude =  0.5731 beta
    D(  159) --> S(    5) amplitude = -0.1599 beta

 Excited state  25: excitation energy (eV) =    3.3300
 Total energy for state 25:                 -3317.94212272 au
    <S**2>     :  8.7799
    Trans. Mom.: -0.0013 X   0.0165 Y  -0.0977 Z
    Strength   :     0.0008007832
    D(  149) --> S(    1) amplitude =  0.1520 beta
    D(  151) --> S(    1) amplitude =  0.5398 beta
    D(  151) --> S(    2) amplitude =  0.2226 beta
    D(  154) --> S(    3) amplitude =  0.3944 beta
    D(  158) --> S(    4) amplitude =  0.4583 beta
    D(  159) --> S(    4) amplitude =  0.3730 beta
    D(  159) --> S(    5) amplitude =  0.1669 beta

 Excited state  26: excitation energy (eV) =    3.3452
 Total energy for state 26:                 -3317.94156459 au
    <S**2>     :  8.7836
    Trans. Mom.:  0.1455 X   0.0334 Y   0.0210 Z
    Strength   :     0.0018638305
    D(  151) --> S(    1) amplitude = -0.4684 beta
    D(  151) --> S(    2) amplitude =  0.3829 beta
    D(  154) --> S(    3) amplitude = -0.2390 beta
    D(  156) --> S(    3) amplitude =  0.1725 beta
    D(  158) --> S(    4) amplitude =  0.4888 beta
    D(  158) --> S(    5) amplitude =  0.1550 beta
    D(  159) --> S(    4) amplitude =  0.3340 beta
    D(  159) --> S(    5) amplitude = -0.2698 beta

 Excited state  27: excitation energy (eV) =    3.3617
 Total energy for state 27:                 -3317.94095807 au
    <S**2>     :  8.7813
    Trans. Mom.: -0.1310 X   0.0000 Y  -0.0685 Z
    Strength   :     0.0017985056
    D(  151) --> S(    1) amplitude = -0.4287 beta
    D(  151) --> S(    2) amplitude = -0.4474 beta
    D(  154) --> S(    3) amplitude =  0.3227 beta
    D(  156) --> S(    3) amplitude = -0.1603 beta
    D(  158) --> S(    4) amplitude =  0.5001 beta
    D(  159) --> S(    5) amplitude =  0.3342 beta

 Excited state  28: excitation energy (eV) =    3.3836
 Total energy for state 28:                 -3317.94015563 au
    <S**2>     :  8.7920
    Trans. Mom.:  0.3120 X  -0.0125 Y   0.0423 Z
    Strength   :     0.0082284759
    D(  151) --> S(    2) amplitude = -0.4944 beta
    D(  158) --> S(    5) amplitude =  0.7505 beta
    D(  159) --> S(    4) amplitude =  0.2627 beta
    D(  159) --> S(    5) amplitude = -0.2157 beta

 Excited state  29: excitation energy (eV) =    3.4083
 Total energy for state 29:                 -3317.93924782 au
    <S**2>     :  8.7815
    Trans. Mom.:  0.0044 X   0.0188 Y   0.0237 Z
    Strength   :     0.0000779132
    D(  150) --> S(    1) amplitude =  0.7941 beta
    D(  152) --> S(    1) amplitude = -0.5501 beta

 Excited state  30: excitation energy (eV) =    3.4350
 Total energy for state 30:                 -3317.93826630 au
    <S**2>     :  8.7768
    Trans. Mom.:  0.0136 X   0.0250 Y   0.0328 Z
    Strength   :     0.0001586999
    D(  150) --> S(    2) amplitude =  0.8217 beta
    D(  152) --> S(    2) amplitude = -0.5253 beta

 Excited state  31: excitation energy (eV) =    3.4540
 Total energy for state 31:                 -3317.93756780 au
    <S**2>     :  8.7761
    Trans. Mom.:  0.1018 X   0.2168 Y   0.0619 Z
    Strength   :     0.0051784023
    D(  148) --> S(    3) amplitude =  0.2530 beta
    D(  150) --> S(    1) amplitude = -0.1764 beta
    D(  150) --> S(    3) amplitude =  0.2523 beta
    D(  151) --> S(    2) amplitude =  0.1712 beta
    D(  152) --> S(    3) amplitude =  0.5069 beta
    D(  153) --> S(    3) amplitude =  0.2667 beta
    D(  154) --> S(    3) amplitude =  0.3781 beta
    D(  156) --> S(    4) amplitude =  0.2321 beta
    D(  158) --> S(    4) amplitude = -0.1887 beta
    D(  159) --> S(    4) amplitude =  0.1695 beta
    D(  159) --> S(    5) amplitude = -0.2435 beta

 Excited state  32: excitation energy (eV) =    3.5054
 Total energy for state 32:                 -3317.93567873 au
    <S**2>     :  8.7817
    Trans. Mom.: -0.0196 X  -0.0123 Y   0.0079 Z
    Strength   :     0.0000512303
    D(  148) --> S(    1) amplitude =  0.3196 beta
    D(  149) --> S(    1) amplitude =  0.8769 beta
    D(  150) --> S(    1) amplitude = -0.2092 beta
    D(  151) --> S(    1) amplitude = -0.2281 beta

 Excited state  33: excitation energy (eV) =    3.5105
 Total energy for state 33:                 -3317.93548997 au
    <S**2>     :  8.7725
    Trans. Mom.:  0.0302 X  -0.0505 Y  -0.0087 Z
    Strength   :     0.0003039462
    D(  152) --> S(    3) amplitude = -0.1636 beta
    D(  153) --> S(    3) amplitude =  0.9494 beta

 Excited state  34: excitation energy (eV) =    3.5184
 Total energy for state 34:                 -3317.93519903 au
    <S**2>     :  8.7766
    Trans. Mom.: -0.0103 X   0.0043 Y   0.0178 Z
    Strength   :     0.0000381537
    D(  148) --> S(    2) amplitude =  0.1542 beta
    D(  149) --> S(    2) amplitude =  0.9351 beta
    D(  151) --> S(    2) amplitude = -0.2088 beta

 Excited state  35: excitation energy (eV) =    3.5309
 Total energy for state 35:                 -3317.93473998 au
    <S**2>     :  8.7816
    Trans. Mom.: -0.0101 X   0.0006 Y  -0.0155 Z
    Strength   :     0.0000297196
    D(  148) --> S(    1) amplitude =  0.7796 beta
    D(  149) --> S(    1) amplitude = -0.3973 beta
    D(  150) --> S(    1) amplitude = -0.2962 beta
    D(  152) --> S(    1) amplitude = -0.3089 beta

 Excited state  36: excitation energy (eV) =    3.5525
 Total energy for state 36:                 -3317.93394818 au
    <S**2>     :  8.7772
    Trans. Mom.:  0.0184 X   0.0544 Y  -0.0071 Z
    Strength   :     0.0002915880
    D(  148) --> S(    2) amplitude =  0.8434 beta
    D(  149) --> S(    2) amplitude = -0.2034 beta
    D(  150) --> S(    2) amplitude = -0.3216 beta
    D(  152) --> S(    2) amplitude = -0.3108 beta

 Excited state  37: excitation energy (eV) =    3.6704
 Total energy for state 37:                 -3317.92961477 au
    <S**2>     :  8.7729
    Trans. Mom.:  0.0407 X  -0.0528 Y  -0.0376 Z
    Strength   :     0.0005263494
    D(  149) --> S(    3) amplitude =  0.2312 beta
    D(  150) --> S(    3) amplitude =  0.1737 beta
    D(  151) --> S(    3) amplitude =  0.9016 beta
    D(  154) --> S(    3) amplitude =  0.1643 beta

 Excited state  38: excitation energy (eV) =    3.7380
 Total energy for state 38:                 -3317.92713028 au
    <S**2>     :  8.7762
    Trans. Mom.:  0.0751 X   0.1478 Y  -0.0676 Z
    Strength   :     0.0029360695
    D(  150) --> S(    3) amplitude = -0.5587 beta
    D(  152) --> S(    3) amplitude =  0.5928 beta
    D(  156) --> S(    4) amplitude = -0.4179 beta
    D(  157) --> S(    4) amplitude =  0.2201 beta

 Excited state  39: excitation energy (eV) =    3.7556
 Total energy for state 39:                 -3317.92648255 au
    <S**2>     :  8.7743
    Trans. Mom.: -0.0222 X   0.1798 Y  -0.0801 Z
    Strength   :     0.0036094134
    D(  147) --> S(    1) amplitude = -0.3879 beta
    D(  150) --> S(    3) amplitude =  0.5611 beta
    D(  156) --> S(    4) amplitude = -0.5072 beta
    D(  157) --> S(    4) amplitude =  0.2798 beta

 Excited state  40: excitation energy (eV) =    3.7678
 Total energy for state 40:                 -3317.92603583 au
    <S**2>     :  8.7808
    Trans. Mom.:  0.0020 X   0.0865 Y  -0.0667 Z
    Strength   :     0.0011015143
    D(  147) --> S(    1) amplitude =  0.8907 beta
    D(  148) --> S(    1) amplitude =  0.1529 beta
    D(  150) --> S(    3) amplitude =  0.1889 beta
    D(  156) --> S(    4) amplitude = -0.2606 beta

 Excited state  41: excitation energy (eV) =    3.7871
 Total energy for state 41:                 -3317.92532694 au
    <S**2>     :  8.7767
    Trans. Mom.:  0.0127 X   0.0470 Y  -0.0415 Z
    Strength   :     0.0003794681
    D(  146) --> S(    2) amplitude =  0.1648 beta
    D(  147) --> S(    2) amplitude =  0.9560 beta

 Excited state  42: excitation energy (eV) =    3.7930
 Total energy for state 42:                 -3317.92510736 au
    <S**2>     :  8.7815
    Trans. Mom.:  0.0169 X   0.0113 Y  -0.0217 Z
    Strength   :     0.0000823971
    D(  146) --> S(    1) amplitude =  0.9629 beta
    D(  148) --> S(    1) amplitude = -0.1754 beta

 Excited state  43: excitation energy (eV) =    3.8073
 Total energy for state 43:                 -3317.92458339 au
    <S**2>     :  8.7899
    Trans. Mom.:  0.0028 X   0.0811 Y  -0.0442 Z
    Strength   :     0.0007967121
    D(  146) --> S(    2) amplitude = -0.4012 beta
    D(  150) --> S(    3) amplitude =  0.2238 beta
    D(  154) --> S(    5) amplitude =  0.2130 beta
    D(  156) --> S(    5) amplitude =  0.6632 beta
    D(  157) --> S(    5) amplitude = -0.3854 beta

 Excited state  44: excitation energy (eV) =    3.8109
 Total energy for state 44:                 -3317.92445110 au
    <S**2>     :  8.7779
    Trans. Mom.:  0.0045 X   0.0455 Y   0.0332 Z
    Strength   :     0.0002984599
    D(  146) --> S(    2) amplitude =  0.8654 beta
    D(  148) --> S(    2) amplitude = -0.1652 beta
    D(  156) --> S(    5) amplitude =  0.3209 beta
    D(  157) --> S(    5) amplitude = -0.1869 beta

 Excited state  45: excitation energy (eV) =    3.8486
 Total energy for state 45:                 -3317.92306364 au
    <S**2>     :  8.7732
    Trans. Mom.:  0.0260 X   0.0583 Y  -0.0233 Z
    Strength   :     0.0004356488
    D(  148) --> S(    3) amplitude =  0.2080 beta
    D(  149) --> S(    3) amplitude =  0.9142 beta
    D(  151) --> S(    3) amplitude = -0.2448 beta

 Excited state  46: excitation energy (eV) =    3.8662
 Total energy for state 46:                 -3317.92242034 au
    <S**2>     :  8.7901
    Trans. Mom.: -0.0727 X   0.0198 Y  -0.0226 Z
    Strength   :     0.0005864311
    D(  145) --> S(    1) amplitude =  0.7423 beta
    D(  145) --> S(    2) amplitude =  0.5399 beta

 Excited state  47: excitation energy (eV) =    3.8761
 Total energy for state 47:                 -3317.92205579 au
    <S**2>     :  8.7780
    Trans. Mom.:  0.0871 X   0.0211 Y  -0.0701 Z
    Strength   :     0.0012301024
    D(  142) --> S(    1) amplitude =  0.1567 beta
    D(  144) --> S(    1) amplitude = -0.1622 beta
    D(  145) --> S(    1) amplitude = -0.3064 beta
    D(  145) --> S(    2) amplitude =  0.5065 beta
    D(  148) --> S(    3) amplitude =  0.6082 beta
    D(  149) --> S(    3) amplitude = -0.2293 beta
    D(  150) --> S(    3) amplitude = -0.1940 beta
    D(  152) --> S(    3) amplitude = -0.2058 beta

 Excited state  48: excitation energy (eV) =    3.8773
 Total energy for state 48:                 -3317.92201063 au
    <S**2>     :  8.8189
    Trans. Mom.: -0.0925 X   0.1002 Y   0.0356 Z
    Strength   :     0.0018865540
    D(  142) --> S(    1) amplitude = -0.1745 beta
    D(  144) --> S(    1) amplitude =  0.2669 beta
    D(  144) --> S(    2) amplitude = -0.1608 beta
    D(  145) --> S(    1) amplitude =  0.3509 beta
    D(  145) --> S(    2) amplitude = -0.4473 beta
    D(  148) --> S(    3) amplitude =  0.5582 beta
    D(  149) --> S(    3) amplitude = -0.1584 beta
    D(  152) --> S(    3) amplitude = -0.1722 beta

 Excited state  49: excitation energy (eV) =    3.9020
 Total energy for state 49:                 -3317.92110415 au
    <S**2>     : 10.3841
    Trans. Mom.: -0.0385 X   0.0586 Y   0.0158 Z
    Strength   :     0.0004935666
    S(    3) --> V(    3) amplitude =  0.2020 alpha
    S(    5) --> V(    2) amplitude = -0.1958 alpha
    S(    5) --> V(    3) amplitude =  0.4337 alpha
    S(    5) --> V(    5) amplitude = -0.2832 alpha
    S(    5) --> V(    7) amplitude = -0.1846 alpha
    D(  144) --> S(    1) amplitude =  0.1556 beta
    D(  159) --> V(    3) amplitude =  0.3462 beta
    D(  159) --> V(    5) amplitude =  0.2614 beta
    D(  159) --> V(    6) amplitude = -0.3060 beta

 Excited state  50: excitation energy (eV) =    3.9358
 Total energy for state 50:                 -3317.91986217 au
    <S**2>     :  8.8046
    Trans. Mom.:  0.0472 X   0.0532 Y  -0.0153 Z
    Strength   :     0.0005105542
    D(  143) --> S(    1) amplitude = -0.2941 beta
    D(  144) --> S(    1) amplitude =  0.8506 beta
    D(  145) --> S(    1) amplitude = -0.2553 beta

 Excited state  51: excitation energy (eV) =    3.9472
 Total energy for state 51:                 -3317.91944250 au
    <S**2>     :  8.7880
    Trans. Mom.: -0.0343 X  -0.0108 Y   0.0178 Z
    Strength   :     0.0001553164
    D(  156) --> S(    4) amplitude =  0.4232 beta
    D(  157) --> S(    4) amplitude =  0.8723 beta

 Excited state  52: excitation energy (eV) =    3.9590
 Total energy for state 52:                 -3317.91900938 au
    <S**2>     :  8.8294
    Trans. Mom.: -0.0196 X   0.0512 Y  -0.1215 Z
    Strength   :     0.0017233395
    D(  143) --> S(    2) amplitude = -0.2668 beta
    D(  144) --> S(    2) amplitude =  0.8999 beta
    D(  145) --> S(    2) amplitude = -0.1978 beta

 Excited state  53: excitation energy (eV) =    3.9994
 Total energy for state 53:                 -3317.91752462 au
    <S**2>     :  8.8096
    Trans. Mom.: -0.0076 X  -0.0069 Y  -0.0343 Z
    Strength   :     0.0001258072
    D(  156) --> S(    5) amplitude =  0.4058 beta
    D(  157) --> S(    5) amplitude =  0.8609 beta

 Excited state  54: excitation energy (eV) =    4.0227
 Total energy for state 54:                 -3317.91666842 au
    <S**2>     :  8.7787
    Trans. Mom.: -0.0353 X  -0.0228 Y  -0.0749 Z
    Strength   :     0.0007272321
    D(  142) --> S(    1) amplitude = -0.2998 beta
    D(  143) --> S(    1) amplitude =  0.6992 beta
    D(  143) --> S(    2) amplitude = -0.3747 beta
    D(  144) --> S(    1) amplitude =  0.2160 beta
    D(  145) --> S(    1) amplitude = -0.2536 beta
    D(  145) --> S(    2) amplitude =  0.2424 beta

 Excited state  55: excitation energy (eV) =    4.0566
 Total energy for state 55:                 -3317.91542007 au
    <S**2>     :  8.8689
    Trans. Mom.: -0.0886 X   0.0726 Y   0.1228 Z
    Strength   :     0.0028014607
    D(  141) --> S(    1) amplitude =  0.1883 beta
    D(  141) --> S(    2) amplitude = -0.2939 beta
    D(  142) --> S(    1) amplitude = -0.2088 beta
    D(  142) --> S(    2) amplitude =  0.6234 beta
    D(  143) --> S(    1) amplitude = -0.4343 beta
    D(  143) --> S(    2) amplitude = -0.2568 beta
    D(  145) --> S(    2) amplitude =  0.1729 beta

 Excited state  56: excitation energy (eV) =    4.0943
 Total energy for state 56:                 -3317.91403695 au
    <S**2>     :  9.8010
    Trans. Mom.:  0.0160 X  -0.0669 Y   0.1324 Z
    Strength   :     0.0022333912
    S(    4) --> V(    1) amplitude = -0.1627 alpha
    S(    4) --> V(    5) amplitude =  0.2561 alpha
    S(    4) --> V(    6) amplitude = -0.3063 alpha
    S(    4) --> V(    7) amplitude = -0.1534 alpha
    D(  141) --> S(    1) amplitude = -0.2274 beta
    D(  142) --> S(    1) amplitude =  0.4255 beta
    D(  143) --> S(    2) amplitude = -0.2456 beta
    D(  158) --> V(    6) amplitude = -0.1825 beta
    D(  158) --> V(    7) amplitude = -0.2855 beta
    D(  159) --> V(    7) amplitude = -0.1585 beta

 Excited state  57: excitation energy (eV) =    4.1022
 Total energy for state 57:                 -3317.91374547 au
    <S**2>     :  8.8474
    Trans. Mom.: -0.0389 X  -0.0184 Y  -0.1644 Z
    Strength   :     0.0029010372
    D(  141) --> S(    2) amplitude = -0.3870 beta
    D(  142) --> S(    1) amplitude =  0.2057 beta
    D(  142) --> S(    2) amplitude =  0.3426 beta
    D(  143) --> S(    1) amplitude =  0.2706 beta
    D(  143) --> S(    2) amplitude =  0.5637 beta
    D(  144) --> S(    2) amplitude =  0.1888 beta
    D(  147) --> S(    3) amplitude = -0.2286 beta
    D(  152) --> S(    4) amplitude = -0.1874 beta

 Excited state  58: excitation energy (eV) =    4.1044
 Total energy for state 58:                 -3317.91366663 au
    <S**2>     :  8.7780
    Trans. Mom.:  0.0427 X   0.0181 Y  -0.0580 Z
    Strength   :     0.0005543692
    D(  147) --> S(    3) amplitude =  0.9484 beta

 Excited state  59: excitation energy (eV) =    4.1170
 Total energy for state 59:                 -3317.91320338 au
    <S**2>     :  9.2312
    Trans. Mom.: -0.0318 X  -0.0217 Y   0.2292 Z
    Strength   :     0.0054505700
    S(    4) --> V(    5) amplitude = -0.1660 alpha
    S(    4) --> V(    6) amplitude =  0.1975 alpha
    D(  141) --> S(    1) amplitude = -0.2971 beta
    D(  142) --> S(    1) amplitude =  0.5829 beta
    D(  142) --> S(    2) amplitude =  0.3154 beta
    D(  143) --> S(    2) amplitude = -0.2832 beta
    D(  158) --> V(    7) amplitude =  0.1989 beta

 Excited state  60: excitation energy (eV) =    4.1308
 Total energy for state 60:                 -3317.91269427 au
    <S**2>     :  8.7755
    Trans. Mom.: -0.0192 X  -0.0156 Y   0.0299 Z
    Strength   :     0.0001524644
    D(  146) --> S(    3) amplitude =  0.9657 beta
    D(  148) --> S(    3) amplitude = -0.1844 beta

 Excited state  61: excitation energy (eV) =    4.2226
 Total energy for state 61:                 -3317.90932018 au
    <S**2>     :  8.7761
    Trans. Mom.:  0.0261 X  -0.1493 Y   0.1455 Z
    Strength   :     0.0045654402
    D(  142) --> S(    1) amplitude = -0.1510 beta
    D(  142) --> S(    3) amplitude = -0.2571 beta
    D(  144) --> S(    3) amplitude =  0.3903 beta
    D(  145) --> S(    3) amplitude =  0.7020 beta
    D(  154) --> S(    4) amplitude =  0.2380 beta
    D(  154) --> S(    5) amplitude = -0.1604 beta

 Excited state  62: excitation energy (eV) =    4.2274
 Total energy for state 62:                 -3317.90914315 au
    <S**2>     :  8.7794
    Trans. Mom.:  0.0145 X   0.0163 Y  -0.0214 Z
    Strength   :     0.0000964137
    D(  155) --> S(    4) amplitude =  0.9848 beta

 Excited state  63: excitation energy (eV) =    4.2453
 Total energy for state 63:                 -3317.90848735 au
    <S**2>     :  8.7816
    Trans. Mom.: -0.0845 X  -0.1195 Y   0.0456 Z
    Strength   :     0.0024446970
    D(  140) --> S(    2) amplitude =  0.2731 beta
    D(  141) --> S(    1) amplitude =  0.3143 beta
    D(  141) --> S(    2) amplitude =  0.5562 beta
    D(  142) --> S(    2) amplitude =  0.3332 beta
    D(  152) --> S(    4) amplitude = -0.1719 beta
    D(  154) --> S(    4) amplitude =  0.3880 beta
    D(  154) --> S(    5) amplitude =  0.1751 beta

 Excited state  64: excitation energy (eV) =    4.2683
 Total energy for state 64:                 -3317.90764062 au
    <S**2>     :  8.7934
    Trans. Mom.:  0.1032 X   0.1807 Y  -0.0189 Z
    Strength   :     0.0045667362
    D(  141) --> S(    1) amplitude = -0.1517 beta
    D(  141) --> S(    3) amplitude = -0.2330 beta
    D(  142) --> S(    3) amplitude =  0.2032 beta
    D(  145) --> S(    3) amplitude =  0.3636 beta
    D(  148) --> S(    5) amplitude = -0.1922 beta
    D(  150) --> S(    5) amplitude = -0.1975 beta
    D(  152) --> S(    5) amplitude = -0.3833 beta
    D(  154) --> S(    5) amplitude =  0.5465 beta
    D(  155) --> S(    5) amplitude = -0.2781 beta

 Excited state  65: excitation energy (eV) =    4.2764
 Total energy for state 65:                 -3317.90734282 au
    <S**2>     :  8.7917
    Trans. Mom.:  0.0066 X   0.0777 Y  -0.0126 Z
    Strength   :     0.0006538182
    D(  154) --> S(    5) amplitude =  0.1619 beta
    D(  155) --> S(    5) amplitude =  0.9516 beta

 Excited state  66: excitation energy (eV) =    4.2777
 Total energy for state 66:                 -3317.90729550 au
    <S**2>     :  8.7793
    Trans. Mom.: -0.0139 X  -0.2902 Y   0.2552 Z
    Strength   :     0.0156741797
    D(  140) --> S(    1) amplitude =  0.1640 beta
    D(  141) --> S(    2) amplitude = -0.3341 beta
    D(  142) --> S(    2) amplitude = -0.2695 beta
    D(  143) --> S(    2) amplitude = -0.2009 beta
    D(  144) --> S(    3) amplitude =  0.3548 beta
    D(  145) --> S(    3) amplitude = -0.4510 beta
    D(  154) --> S(    4) amplitude =  0.5216 beta

 Excited state  67: excitation energy (eV) =    4.3043
 Total energy for state 67:                 -3317.90631937 au
    <S**2>     :  8.7820
    Trans. Mom.: -0.1127 X  -0.0339 Y  -0.0574 Z
    Strength   :     0.0018073837
    D(  140) --> S(    1) amplitude = -0.3021 beta
    D(  141) --> S(    1) amplitude = -0.4353 beta
    D(  142) --> S(    1) amplitude = -0.2100 beta
    D(  142) --> S(    2) amplitude =  0.1958 beta
    D(  143) --> S(    3) amplitude =  0.1764 beta
    D(  144) --> S(    3) amplitude = -0.2605 beta
    D(  152) --> S(    4) amplitude =  0.1995 beta
    D(  154) --> S(    4) amplitude =  0.5315 beta
    D(  154) --> S(    5) amplitude = -0.1672 beta
    D(  156) --> S(    4) amplitude = -0.2377 beta

 Excited state  68: excitation energy (eV) =    4.3181
 Total energy for state 68:                 -3317.90581141 au
    <S**2>     :  8.7832
    Trans. Mom.: -0.0566 X  -0.0884 Y  -0.1215 Z
    Strength   :     0.0027264804
    D(  140) --> S(    1) amplitude = -0.2254 beta
    D(  141) --> S(    1) amplitude = -0.4766 beta
    D(  141) --> S(    2) amplitude =  0.1645 beta
    D(  142) --> S(    1) amplitude = -0.2711 beta
    D(  142) --> S(    2) amplitude =  0.1555 beta
    D(  143) --> S(    3) amplitude = -0.1797 beta
    D(  144) --> S(    3) amplitude =  0.4996 beta
    D(  145) --> S(    3) amplitude = -0.1871 beta
    D(  154) --> S(    4) amplitude = -0.2286 beta
    D(  154) --> S(    5) amplitude =  0.3182 beta

 Excited state  69: excitation energy (eV) =    4.3505
 Total energy for state 69:                 -3317.90462033 au
    <S**2>     :  8.7790
    Trans. Mom.: -0.0494 X  -0.3155 Y   0.2171 Z
    Strength   :     0.0158957821
    D(  141) --> S(    3) amplitude =  0.1913 beta
    D(  142) --> S(    3) amplitude = -0.3480 beta
    D(  143) --> S(    3) amplitude =  0.4569 beta
    D(  144) --> S(    3) amplitude = -0.4238 beta
    D(  151) --> S(    4) amplitude =  0.1662 beta
    D(  152) --> S(    4) amplitude = -0.2655 beta
    D(  154) --> S(    5) amplitude =  0.3067 beta
    D(  156) --> S(    4) amplitude =  0.1585 beta
    D(  156) --> S(    5) amplitude = -0.1844 beta

 Excited state  70: excitation energy (eV) =    4.3656
 Total energy for state 70:                 -3317.90406701 au
    <S**2>     :  8.7864
    Trans. Mom.: -0.0343 X  -0.1058 Y  -0.1892 Z
    Strength   :     0.0051521771
    D(  139) --> S(    1) amplitude = -0.2459 beta
    D(  140) --> S(    1) amplitude =  0.6288 beta
    D(  140) --> S(    2) amplitude =  0.2163 beta
    D(  141) --> S(    1) amplitude = -0.4102 beta
    D(  142) --> S(    1) amplitude = -0.1554 beta
    D(  145) --> S(    1) amplitude = -0.1567 beta
    D(  154) --> S(    5) amplitude = -0.3612 beta

 Excited state  71: excitation energy (eV) =    4.3953
 Total energy for state 71:                 -3317.90297568 au
    <S**2>     :  8.7752
    Trans. Mom.: -0.0810 X  -0.0760 Y   0.0907 Z
    Strength   :     0.0022155578
    D(  140) --> S(    1) amplitude = -0.2444 beta
    D(  140) --> S(    2) amplitude = -0.3247 beta
    D(  141) --> S(    3) amplitude = -0.1913 beta
    D(  142) --> S(    3) amplitude =  0.1544 beta
    D(  143) --> S(    3) amplitude =  0.4410 beta
    D(  144) --> S(    3) amplitude =  0.1659 beta
    D(  148) --> S(    5) amplitude = -0.1557 beta
    D(  152) --> S(    4) amplitude = -0.2845 beta
    D(  152) --> S(    5) amplitude = -0.2951 beta
    D(  153) --> S(    4) amplitude = -0.1902 beta
    D(  154) --> S(    5) amplitude = -0.3247 beta
    D(  156) --> S(    5) amplitude =  0.1697 beta

 Excited state  72: excitation energy (eV) =    4.4331
 Total energy for state 72:                 -3317.90158692 au
    <S**2>     :  8.7765
    Trans. Mom.:  0.0182 X   0.1723 Y  -0.3472 Z
    Strength   :     0.0163505207
    D(  140) --> S(    1) amplitude =  0.3376 beta
    D(  141) --> S(    3) amplitude = -0.2142 beta
    D(  142) --> S(    3) amplitude =  0.1504 beta
    D(  143) --> S(    3) amplitude =  0.5140 beta
    D(  144) --> S(    3) amplitude =  0.3034 beta
    D(  151) --> S(    4) amplitude = -0.1705 beta
    D(  152) --> S(    5) amplitude =  0.2659 beta
    D(  153) --> S(    4) amplitude =  0.3074 beta
    D(  154) --> S(    5) amplitude =  0.1711 beta

 Excited state  73: excitation energy (eV) =    4.4396
 Total energy for state 73:                 -3317.90134715 au
    <S**2>     :  8.7822
    Trans. Mom.: -0.0731 X  -0.0061 Y   0.0108 Z
    Strength   :     0.0005977673
    D(  140) --> S(    2) amplitude =  0.3107 beta
    D(  152) --> S(    5) amplitude = -0.2273 beta
    D(  153) --> S(    4) amplitude =  0.8094 beta

 Excited state  74: excitation energy (eV) =    4.4473
 Total energy for state 74:                 -3317.90106327 au
    <S**2>     :  8.7877
    Trans. Mom.: -0.0788 X   0.2054 Y  -0.1425 Z
    Strength   :     0.0074873740
    D(  139) --> S(    1) amplitude =  0.1675 beta
    D(  139) --> S(    2) amplitude = -0.1895 beta
    D(  140) --> S(    2) amplitude =  0.5882 beta
    D(  141) --> S(    2) amplitude = -0.1942 beta
    D(  143) --> S(    3) amplitude =  0.3778 beta
    D(  151) --> S(    4) amplitude = -0.1630 beta
    D(  152) --> S(    4) amplitude =  0.1939 beta
    D(  153) --> S(    4) amplitude = -0.4307 beta

 Excited state  75: excitation energy (eV) =    4.4890
 Total energy for state 75:                 -3317.89953102 au
    <S**2>     :  8.7995
    Trans. Mom.: -0.1874 X  -0.0231 Y   0.0091 Z
    Strength   :     0.0039318655
    D(  139) --> S(    2) amplitude =  0.1565 beta
    D(  140) --> S(    1) amplitude = -0.1961 beta
    D(  140) --> S(    2) amplitude =  0.3421 beta
    D(  141) --> S(    3) amplitude = -0.2515 beta
    D(  142) --> S(    3) amplitude =  0.4445 beta
    D(  151) --> S(    4) amplitude =  0.2371 beta
    D(  152) --> S(    4) amplitude = -0.1526 beta
    D(  152) --> S(    5) amplitude =  0.1704 beta
    D(  153) --> S(    5) amplitude =  0.5459 beta

 Excited state  76: excitation energy (eV) =    4.5057
 Total energy for state 76:                 -3317.89891572 au
    <S**2>     :  8.7981
    Trans. Mom.:  0.1213 X   0.0373 Y   0.0224 Z
    Strength   :     0.0018322836
    D(  140) --> S(    2) amplitude = -0.1608 beta
    D(  142) --> S(    3) amplitude = -0.2694 beta
    D(  151) --> S(    4) amplitude = -0.1525 beta
    D(  152) --> S(    5) amplitude = -0.2784 beta
    D(  153) --> S(    5) amplitude =  0.8052 beta

 Excited state  77: excitation energy (eV) =    4.5407
 Total energy for state 77:                 -3317.89763130 au
    <S**2>     :  9.8555
    Trans. Mom.:  0.0579 X  -0.0238 Y   0.0497 Z
    Strength   :     0.0007107730
    S(    3) --> V(    2) amplitude = -0.3505 alpha
    S(    5) --> V(    1) amplitude =  0.4673 alpha
    S(    5) --> V(    2) amplitude =  0.5631 alpha
    D(  157) --> V(    2) amplitude =  0.2297 beta

 Excited state  78: excitation energy (eV) =    4.5753
 Total energy for state 78:                 -3317.89636105 au
    <S**2>     :  8.8076
    Trans. Mom.:  0.1192 X  -0.1019 Y   0.0791 Z
    Strength   :     0.0034578608
    S(    5) --> V(    1) amplitude = -0.1866 alpha
    D(  139) --> S(    1) amplitude =  0.7436 beta
    D(  139) --> S(    2) amplitude =  0.4972 beta
    D(  140) --> S(    1) amplitude =  0.2039 beta
    D(  151) --> S(    4) amplitude =  0.1504 beta

 Excited state  79: excitation energy (eV) =    4.5953
 Total energy for state 79:                 -3317.89562523 au
    <S**2>     :  8.8489
    Trans. Mom.:  0.0937 X  -0.1421 Y   0.2446 Z
    Strength   :     0.0099957830
    S(    5) --> V(    1) amplitude = -0.2813 alpha
    D(  139) --> S(    1) amplitude = -0.3821 beta
    D(  139) --> S(    2) amplitude =  0.6120 beta
    D(  141) --> S(    2) amplitude = -0.1662 beta
    D(  151) --> S(    4) amplitude = -0.4727 beta

 Excited state  80: excitation energy (eV) =    4.6073
 Total energy for state 80:                 -3317.89518473 au
    <S**2>     :  9.7203
    Trans. Mom.:  0.1053 X   0.0076 Y   0.1338 Z
    Strength   :     0.0032781952
    S(    2) --> V(    2) amplitude = -0.1856 alpha
    S(    3) --> V(    2) amplitude =  0.2026 alpha
    S(    5) --> V(    1) amplitude =  0.7210 alpha
    S(    5) --> V(    2) amplitude = -0.1560 alpha
    D(  139) --> S(    2) amplitude =  0.2464 beta
    D(  157) --> V(    2) amplitude = -0.2670 beta

 Excited state  81: excitation energy (eV) =    4.6155
 Total energy for state 81:                 -3317.89488273 au
    <S**2>     :  8.8911
    Trans. Mom.:  0.1300 X   0.0719 Y  -0.0514 Z
    Strength   :     0.0027946143
    D(  141) --> S(    3) amplitude =  0.7280 beta
    D(  142) --> S(    3) amplitude =  0.4930 beta
    D(  143) --> S(    3) amplitude =  0.2023 beta

 Excited state  82: excitation energy (eV) =    4.6357
 Total energy for state 82:                 -3317.89414169 au
    <S**2>     : 10.0783
    Trans. Mom.:  0.0028 X  -0.0106 Y  -0.0864 Z
    Strength   :     0.0008620422
    S(    2) --> V(    2) amplitude = -0.3423 alpha
    S(    4) --> V(    1) amplitude =  0.1601 alpha
    S(    4) --> V(    2) amplitude =  0.3473 alpha
    S(    5) --> V(    1) amplitude = -0.2973 alpha
    S(    5) --> V(    2) amplitude =  0.3375 alpha
    S(    5) --> V(    3) amplitude =  0.1571 alpha
    D(  157) --> V(    2) amplitude = -0.2735 beta
    D(  158) --> V(    2) amplitude = -0.2163 beta

 Excited state  83: excitation energy (eV) =    4.6623
 Total energy for state 83:                 -3317.89316108 au
    <S**2>     :  8.8203
    Trans. Mom.:  0.2043 X   0.2368 Y  -0.0955 Z
    Strength   :     0.0122158170
    D(  139) --> S(    1) amplitude = -0.2057 beta
    D(  139) --> S(    2) amplitude =  0.1724 beta
    D(  150) --> S(    4) amplitude = -0.3201 beta
    D(  151) --> S(    4) amplitude =  0.5136 beta
    D(  151) --> S(    5) amplitude = -0.3656 beta
    D(  152) --> S(    4) amplitude =  0.5478 beta

 Excited state  84: excitation energy (eV) =    4.6784
 Total energy for state 84:                 -3317.89257163 au
    <S**2>     :  8.8021
    Trans. Mom.:  0.1503 X   0.1732 Y   0.0081 Z
    Strength   :     0.0060375277
    D(  150) --> S(    4) amplitude =  0.6348 beta
    D(  151) --> S(    5) amplitude = -0.6274 beta
    D(  152) --> S(    4) amplitude = -0.2665 beta

 Excited state  85: excitation energy (eV) =    4.6936
 Total energy for state 85:                 -3317.89201047 au
    <S**2>     :  8.9040
    Trans. Mom.:  0.1333 X   0.2834 Y  -0.1756 Z
    Strength   :     0.0148252161
    D(  139) --> S(    1) amplitude = -0.2043 beta
    D(  139) --> S(    2) amplitude =  0.1700 beta
    D(  140) --> S(    3) amplitude =  0.2852 beta
    D(  150) --> S(    4) amplitude =  0.4557 beta
    D(  151) --> S(    4) amplitude =  0.3324 beta
    D(  151) --> S(    5) amplitude =  0.4940 beta
    D(  159) --> V(    1) amplitude = -0.3555 beta

 Excited state  86: excitation energy (eV) =    4.6998
 Total energy for state 86:                 -3317.89178581 au
    <S**2>     :  9.6369
    Trans. Mom.: -0.0523 X   0.0701 Y  -0.1188 Z
    Strength   :     0.0025070434
    D(  140) --> S(    3) amplitude =  0.1566 beta
    D(  151) --> S(    4) amplitude =  0.1709 beta
    D(  151) --> S(    5) amplitude =  0.1667 beta
    D(  159) --> V(    1) amplitude =  0.8801 beta

 Excited state  87: excitation energy (eV) =    4.7227
 Total energy for state 87:                 -3317.89094215 au
    <S**2>     :  9.8380
    Trans. Mom.: -0.0074 X  -0.0640 Y   0.0072 Z
    Strength   :     0.0004867428
    S(    3) --> V(    2) amplitude =  0.1885 alpha
    S(    4) --> V(    1) amplitude = -0.4363 alpha
    S(    4) --> V(    2) amplitude = -0.3098 alpha
    S(    5) --> V(    2) amplitude =  0.5176 alpha
    D(  156) --> V(    2) amplitude =  0.1528 beta
    D(  157) --> V(    2) amplitude = -0.1542 beta
    D(  158) --> V(    1) amplitude =  0.1643 beta
    D(  158) --> V(    2) amplitude =  0.2678 beta
    D(  159) --> V(    1) amplitude =  0.1627 beta
    D(  159) --> V(    2) amplitude = -0.1883 beta

 Excited state  88: excitation energy (eV) =    4.7410
 Total energy for state 88:                 -3317.89026867 au
    <S**2>     :  8.8197
    Trans. Mom.: -0.1118 X  -0.0713 Y   0.0020 Z
    Strength   :     0.0020421830
    D(  150) --> S(    5) amplitude =  0.8070 beta
    D(  152) --> S(    5) amplitude = -0.5030 beta

 Excited state  89: excitation energy (eV) =    4.7601
 Total energy for state 89:                 -3317.88956855 au
    <S**2>     :  9.2193
    Trans. Mom.: -0.1145 X   0.0373 Y  -0.1402 Z
    Strength   :     0.0039850066
    S(    4) --> V(    1) amplitude =  0.6878 alpha
    D(  148) --> S(    4) amplitude = -0.2287 beta
    D(  149) --> S(    4) amplitude = -0.1743 beta
    D(  150) --> S(    4) amplitude =  0.1773 beta
    D(  156) --> V(    2) amplitude =  0.1518 beta
    D(  158) --> V(    1) amplitude =  0.2613 beta
    D(  158) --> V(    2) amplitude =  0.3035 beta
    D(  159) --> V(    2) amplitude = -0.1870 beta

 Excited state  90: excitation energy (eV) =    4.7737
 Total energy for state 90:                 -3317.88906781 au
    <S**2>     :  8.8351
    Trans. Mom.: -0.0364 X   0.0861 Y  -0.1226 Z
    Strength   :     0.0027792886
    S(    4) --> V(    1) amplitude =  0.2009 alpha
    D(  140) --> S(    3) amplitude =  0.5532 beta
    D(  148) --> S(    4) amplitude =  0.2968 beta
    D(  149) --> S(    4) amplitude =  0.5904 beta
    D(  150) --> S(    4) amplitude = -0.1928 beta
    D(  152) --> S(    4) amplitude = -0.1593 beta

 Excited state  91: excitation energy (eV) =    4.7930
 Total energy for state 91:                 -3317.88835996 au
    <S**2>     :  8.9166
    Trans. Mom.: -0.0634 X   0.1195 Y   0.0102 Z
    Strength   :     0.0021601309
    S(    5) --> V(    3) amplitude =  0.2436 alpha
    S(    5) --> V(    5) amplitude =  0.2446 alpha
    S(    5) --> V(    6) amplitude = -0.1558 alpha
    D(  140) --> S(    3) amplitude = -0.2669 beta
    D(  148) --> S(    4) amplitude = -0.3926 beta
    D(  149) --> S(    4) amplitude =  0.6346 beta
    D(  150) --> S(    4) amplitude =  0.1677 beta
    D(  152) --> S(    4) amplitude =  0.2050 beta

 Excited state  92: excitation energy (eV) =    4.7956
 Total energy for state 92:                 -3317.88826488 au
    <S**2>     :  9.3427
    Trans. Mom.: -0.0160 X   0.1573 Y  -0.0426 Z
    Strength   :     0.0031499445
    S(    4) --> V(    2) amplitude =  0.3116 alpha
    S(    4) --> V(    3) amplitude = -0.1578 alpha
    S(    5) --> V(    2) amplitude = -0.1973 alpha
    S(    5) --> V(    3) amplitude =  0.3600 alpha
    S(    5) --> V(    5) amplitude =  0.2397 alpha
    D(  140) --> S(    3) amplitude =  0.2334 beta
    D(  149) --> S(    4) amplitude = -0.3617 beta
    D(  158) --> V(    1) amplitude =  0.4986 beta
    D(  159) --> V(    2) amplitude =  0.1935 beta

 Excited state  93: excitation energy (eV) =    4.7998
[...]
  1.8271   1.8291   1.8333   1.8339   1.8427   1.8458   1.8510   1.8535
  1.8586   1.8625   1.8659   1.8727   1.8774   1.8821   1.8878   1.8886
  1.8942   1.8972   1.9015   1.9024   1.9093   1.9145   1.9149   1.9169
  1.9209   1.9277   1.9317   1.9333   1.9356   1.9433   1.9472   1.9511
  1.9532   1.9568   1.9590   1.9636   1.9680   1.9733   1.9789   1.9802
  1.9832   1.9853   1.9873   1.9905   1.9982   2.0003   2.0043   2.0078
  2.0099   2.0151   2.0190   2.0205   2.0299   2.0318   2.0350   2.0401
  2.0433   2.0454   2.0474   2.0526   2.0577   2.0580   2.0585   2.0663
  2.0729   2.0755   2.0761   2.0810   2.0827   2.0868   2.0959   2.0976
  2.1019   2.1030   2.1125   2.1144   2.1214   2.1263   2.1293   2.1344
  2.1382   2.1402   2.1411   2.1472   2.1527   2.1581   2.1638   2.1671
  2.1731   2.1765   2.1863   2.1888   2.1922   2.1946   2.1993   2.2036
  2.2086   2.2091   2.2180   2.2230   2.2238   2.2324   2.2359   2.2447
  2.2456   2.2522   2.2561   2.2609   2.2639   2.2677   2.2728   2.2829
  2.2858   2.2903   2.2935   2.2980   2.3053   2.3097   2.3151   2.3163
  2.3236   2.3257   2.3325   2.3368   2.3424   2.3457   2.3476   2.3594
  2.3673   2.3682   2.3807   2.3819   2.3859   2.3915   2.3963   2.3983
  2.4037   2.4100   2.4166   2.4251   2.4297   2.4339   2.4355   2.4430
  2.4472   2.4527   2.4604   2.4640   2.4643   2.4726   2.4772   2.4808
  2.4834   2.4875   2.4934   2.4966   2.4995   2.5078   2.5127   2.5165
  2.5203   2.5254   2.5309   2.5405   2.5422   2.5534   2.5598   2.5610
  2.5681   2.5775   2.5823   2.5886   2.5914   2.5962   2.6022   2.6102
  2.6130   2.6201   2.6274   2.6361   2.6375   2.6449   2.6538   2.6686
  2.6772   2.6809   2.6894   2.6941   2.7008   2.7059   2.7140   2.7208
  2.7239   2.7308   2.7310   2.7418   2.7469   2.7495   2.7507   2.7611
  2.7637   2.7782   2.7820   2.7827   2.7916   2.7976   2.8113   2.8168
  2.8263   2.8359   2.8361   2.8414   2.8479   2.8493   2.8549   2.8705
  2.8841   2.8872   2.8910   2.8957   2.9048   2.9100   2.9218   2.9270
  2.9293   2.9464   2.9490   2.9572   2.9726   2.9848   2.9875   3.0028
  3.0077   3.0193   3.0409   3.0487   3.0560   3.0632   3.0855   3.1041
  3.1077   3.1154   3.1318   3.1400   3.1610   3.1751   3.2063   3.2155
  3.2322   3.2456   3.2597   3.2720   3.2746   3.2982   3.3194   3.3419
  3.3656   3.3733   3.3926   3.4113   3.4312   3.4453   3.4460   3.4648
  3.4661   3.4721   3.4784   3.4899   3.4938   3.4985   3.5018   3.5083
  3.5092   3.5157   3.5192   3.5262   3.5351   3.5386   3.5452   3.5508
  3.5518   3.5566   3.5626   3.5683   3.5718   3.5768   3.5782   3.5821
  3.5915   3.6041   3.6061   3.6134   3.6194   3.6313   3.6367   3.6500
  3.6642   3.6765   3.6802   3.6861   3.6916   3.7035   3.7077   3.7112
  3.7180   3.7289   3.7455   3.7529   3.7632   3.7710   3.7884   3.8023
  3.8095   3.8116   3.8171   3.8253   3.8307   3.8399   3.8565   3.8608
  3.8792   3.8989   3.9221   3.9292   3.9335   3.9720   3.9785   3.9888
  3.9925   4.0090   4.0185   4.0339   4.0446   4.0830   4.0991   4.1178
  4.1313   4.1605   4.1884   4.2036   4.2244   4.2723   4.3268   4.3697
  4.4034   4.4117   4.5079   4.5341   4.6121   4.6527
 
 Beta MOs
 -- Occupied --
******** -29.8847 -25.7276 -25.7259 -25.7258 -19.0610 -19.0539 -19.0525
-19.0483 -19.0446 -19.0314 -19.0277 -19.0256 -19.0142 -19.0130 -19.0095
-19.0066 -19.0055 -14.3390 -14.3366 -14.2635 -14.2554 -10.2160 -10.2137
-10.2128 -10.2048 -10.2023 -10.1977 -10.1923 -10.1714 -10.1560 -10.1505
-10.1440 -10.1398 -10.1265 -10.1262 -10.1148 -10.1148 -10.1140 -10.1113
-10.1077 -10.1073 -10.1038 -10.1038  -3.3483  -2.1160  -2.1132  -2.1125
 -1.0537  -1.0503  -1.0220  -1.0010  -0.9959  -0.9939  -0.9898  -0.9804
 -0.9778  -0.9407  -0.9209  -0.9137  -0.9069  -0.8828  -0.8815  -0.8266
 -0.8241  -0.7710  -0.7655  -0.7473  -0.7342  -0.7247  -0.7065  -0.7009
 -0.6887  -0.6677  -0.6570  -0.6174  -0.6083  -0.5906  -0.5684  -0.5572
 -0.5440  -0.5333  -0.5228  -0.5098  -0.5063  -0.4989  -0.4896  -0.4828
 -0.4765  -0.4754  -0.4678  -0.4633  -0.4562  -0.4520  -0.4480  -0.4440
 -0.4377  -0.4320  -0.4283  -0.4272  -0.4230  -0.4212  -0.4143  -0.4105
 -0.4060  -0.4000  -0.3966  -0.3937  -0.3884  -0.3879  -0.3865  -0.3828
 -0.3822  -0.3804  -0.3788  -0.3741  -0.3737  -0.3701  -0.3653  -0.3618
 -0.3599  -0.3575  -0.3559  -0.3526  -0.3466  -0.3455  -0.3356  -0.3305
 -0.3303  -0.3260  -0.3111  -0.3094  -0.3070  -0.3049  -0.2999  -0.2981
 -0.2941  -0.2926  -0.2826  -0.2812  -0.2746  -0.2692  -0.2625  -0.2591
 -0.2576  -0.2417  -0.2395  -0.2335  -0.2290  -0.2281  -0.2272  -0.2242
 -0.2175  -0.2114  -0.2092  -0.2056  -0.1985  -0.1925  -0.1889
 -- Virtual --
 -0.0912  -0.0906  -0.0786  -0.0444  -0.0426  -0.0060  -0.0022   0.0002
  0.0027   0.0057   0.0080   0.0095   0.0118   0.0148   0.0179   0.0196
  0.0207   0.0242   0.0271   0.0311   0.0329   0.0336   0.0358   0.0379
  0.0403   0.0419   0.0436   0.0469   0.0478   0.0518   0.0528   0.0536
  0.0557   0.0602   0.0612   0.0644   0.0674   0.0681   0.0694   0.0697
  0.0706   0.0748   0.0774   0.0791   0.0824   0.0863   0.0870   0.0888
  0.0911   0.0916   0.0938   0.0950   0.0983   0.0998   0.1006   0.1020
  0.1040   0.1047   0.1053   0.1074   0.1093   0.1099   0.1123   0.1127
  0.1163   0.1167   0.1185   0.1205   0.1226   0.1243   0.1253   0.1258
  0.1280   0.1297   0.1307   0.1319   0.1334   0.1347   0.1370   0.1375
  0.1405   0.1412   0.1435   0.1457   0.1469   0.1478   0.1487   0.1510
  0.1515   0.1524   0.1550   0.1564   0.1580   0.1597   0.1604   0.1610
  0.1638   0.1662   0.1696   0.1701   0.1710   0.1733   0.1759   0.1768
  0.1777   0.1778   0.1817   0.1830   0.1841   0.1859   0.1878   0.1894
  0.1913   0.1920   0.1937   0.1958   0.1969   0.1993   0.2002   0.2014
  0.2028   0.2043   0.2068   0.2069   0.2087   0.2120   0.2135   0.2143
  0.2159   0.2188   0.2196   0.2199   0.2219   0.2235   0.2259   0.2283
  0.2295   0.2299   0.2337   0.2345   0.2362   0.2374   0.2392   0.2421
  0.2432   0.2454   0.2456   0.2477   0.2486   0.2503   0.2524   0.2525
  0.2553   0.2568   0.2581   0.2597   0.2616   0.2641   0.2644   0.2657
  0.2665   0.2692   0.2698   0.2711   0.2730   0.2738   0.2757   0.2780
  0.2790   0.2801   0.2835   0.2839   0.2857   0.2890   0.2899   0.2904
  0.2921   0.2943   0.2948   0.2959   0.2968   0.2992   0.3028   0.3030
  0.3057   0.3060   0.3082   0.3105   0.3109   0.3128   0.3144   0.3158
  0.3172   0.3191   0.3205   0.3231   0.3238   0.3242   0.3259   0.3304
  0.3315   0.3337   0.3358   0.3387   0.3394   0.3416   0.3421   0.3430
  0.3442   0.3468   0.3498   0.3507   0.3529   0.3532   0.3560   0.3585
  0.3594   0.3617   0.3640   0.3647   0.3654   0.3676   0.3699   0.3701
  0.3743   0.3754   0.3763   0.3769   0.3787   0.3818   0.3830   0.3854
  0.3864   0.3880   0.3911   0.3936   0.3950   0.3966   0.3981   0.3996
  0.4035   0.4057   0.4083   0.4113   0.4139   0.4159   0.4174   0.4176
  0.4195   0.4209   0.4236   0.4267   0.4276   0.4289   0.4312   0.4327
  0.4341   0.4367   0.4393   0.4398   0.4426   0.4444   0.4461   0.4477
  0.4497   0.4508   0.4550   0.4568   0.4598   0.4620   0.4648   0.4658
  0.4679   0.4705   0.4712   0.4758   0.4778   0.4806   0.4816   0.4834
  0.4849   0.4869   0.4898   0.4911   0.4952   0.4964   0.4987   0.4996
  0.5021   0.5033   0.5051   0.5082   0.5102   0.5119   0.5153   0.5163
  0.5186   0.5220   0.5230   0.5247   0.5276   0.5292   0.5331   0.5338
  0.5365   0.5383   0.5424   0.5444   0.5472   0.5483   0.5499   0.5518
  0.5550   0.5573   0.5601   0.5612   0.5626   0.5653   0.5665   0.5693
  0.5711   0.5715   0.5745   0.5768   0.5786   0.5815   0.5832   0.5843
  0.5869   0.5891   0.5902   0.5932   0.5962   0.5980   0.5995   0.6017
  0.6033   0.6036   0.6080   0.6087   0.6114   0.6135   0.6161   0.6178
  0.6211   0.6222   0.6263   0.6277   0.6289   0.6333   0.6354   0.6402
  0.6425   0.6437   0.6452   0.6464   0.6505   0.6516   0.6541   0.6570
  0.6580   0.6600   0.6617   0.6656   0.6668   0.6704   0.6726   0.6760
  0.6780   0.6792   0.6821   0.6834   0.6871   0.6898   0.6926   0.6933
  0.6968   0.6991   0.7001   0.7010   0.7036   0.7058   0.7072   0.7103
  0.7118   0.7137   0.7149   0.7172   0.7192   0.7224   0.7266   0.7283
  0.7318   0.7333   0.7379   0.7392   0.7398   0.7429   0.7449   0.7458
  0.7467   0.7502   0.7527   0.7540   0.7580   0.7605   0.7622   0.7649
  0.7701   0.7718   0.7729   0.7744   0.7756   0.7799   0.7819   0.7834
  0.7856   0.7869   0.7912   0.7931   0.7951   0.7974   0.7984   0.8000
  0.8027   0.8070   0.8094   0.8127   0.8152   0.8181   0.8188   0.8219
  0.8248   0.8262   0.8282   0.8310   0.8343   0.8365   0.8408   0.8454
  0.8475   0.8492   0.8514   0.8517   0.8549   0.8588   0.8614   0.8625
  0.8651   0.8667   0.8700   0.8731   0.8768   0.8783   0.8830   0.8856
  0.8888   0.8907   0.8930   0.8964   0.9013   0.9039   0.9066   0.9115
  0.9133   0.9144   0.9198   0.9239   0.9255   0.9269   0.9292   0.9318
  0.9337   0.9368   0.9385   0.9406   0.9455   0.9457   0.9494   0.9522
  0.9536   0.9589   0.9604   0.9637   0.9683   0.9696   0.9735   0.9768
  0.9814   0.9868   0.9902   0.9937   0.9955   1.0014   1.0043   1.0075
  1.0118   1.0135   1.0163   1.0171   1.0210   1.0271   1.0287   1.0319
  1.0366   1.0381   1.0416   1.0455   1.0493   1.0515   1.0539   1.0590
  1.0594   1.0619   1.0670   1.0697   1.0727   1.0750   1.0804   1.0851
  1.0855   1.0882   1.0920   1.0993   1.1001   1.1037   1.1073   1.1114
  1.1150   1.1183   1.1201   1.1214   1.1241   1.1273   1.1341   1.1364
  1.1388   1.1468   1.1512   1.1534   1.1539   1.1610   1.1640   1.1650
  1.1661   1.1706   1.1733   1.1776   1.1808   1.1818   1.1852   1.1868
  1.1926   1.1936   1.2021   1.2080   1.2115   1.2132   1.2166   1.2183
  1.2253   1.2288   1.2312   1.2336   1.2384   1.2388   1.2436   1.2466
  1.2506   1.2513   1.2536   1.2602   1.2654   1.2693   1.2713   1.2722
  1.2739   1.2791   1.2820   1.2831   1.2920   1.2935   1.2983   1.3032
  1.3047   1.3071   1.3103   1.3141   1.3166   1.3187   1.3217   1.3259
  1.3290   1.3318   1.3370   1.3422   1.3467   1.3512   1.3534   1.3563
  1.3584   1.3649   1.3692   1.3716   1.3753   1.3810   1.3851   1.3896
  1.3907   1.4003   1.4071   1.4095   1.4135   1.4183   1.4214   1.4240
  1.4291   1.4307   1.4333   1.4379   1.4425   1.4439   1.4530   1.4569
  1.4613   1.4628   1.4695   1.4717   1.4739   1.4810   1.4839   1.4887
  1.4942   1.4963   1.5048   1.5096   1.5134   1.5181   1.5215   1.5272
  1.5280   1.5332   1.5368   1.5416   1.5443   1.5525   1.5528   1.5549
  1.5561   1.5636   1.5682   1.5714   1.5765   1.5816   1.5845   1.5883
  1.5936   1.5969   1.6011   1.6038   1.6051   1.6095   1.6183   1.6196
  1.6230   1.6255   1.6294   1.6323   1.6396   1.6428   1.6462   1.6477
  1.6551   1.6611   1.6653   1.6699   1.6720   1.6759   1.6771   1.6808
  1.6837   1.6854   1.6922   1.6981   1.7043   1.7064   1.7122   1.7174
  1.7223   1.7252   1.7282   1.7306   1.7327   1.7338   1.7397   1.7420
  1.7451   1.7506   1.7562   1.7586   1.7625   1.7682   1.7690   1.7766
  1.7781   1.7823   1.7831   1.7870   1.7935   1.7951   1.8035   1.8061
  1.8083   1.8121   1.8163   1.8198   1.8257   1.8316   1.8335   1.8356
  1.8372   1.8458   1.8480   1.8592   1.8601   1.8632   1.8654   1.8715
  1.8745   1.8801   1.8838   1.8900   1.8922   1.8972   1.8993   1.9043
  1.9049   1.9120   1.9164   1.9174   1.9203   1.9250   1.9304   1.9342
  1.9386   1.9436   1.9475   1.9505   1.9538   1.9564   1.9585   1.9632
  1.9665   1.9730   1.9763   1.9818   1.9832   1.9867   1.9875   1.9915
  1.9968   1.9999   2.0023   2.0071   2.0103   2.0118   2.0171   2.0217
  2.0241   2.0320   2.0350   2.0387   2.0425   2.0453   2.0479   2.0508
  2.0559   2.0587   2.0607   2.0636   2.0703   2.0753   2.0770   2.0778
  2.0845   2.0854   2.0910   2.0977   2.1013   2.1049   2.1056   2.1152
  2.1169   2.1233   2.1286   2.1330   2.1374   2.1407   2.1419   2.1434
  2.1505   2.1561   2.1608   2.1678   2.1733   2.1756   2.1780   2.1882
  2.1908   2.1960   2.1993   2.2014   2.2068   2.2111   2.2129   2.2207
  2.2243   2.2286   2.2338   2.2398   2.2467   2.2480   2.2559   2.2611
  2.2626   2.2666   2.2723   2.2753   2.2860   2.2885   2.2920   2.2963
  2.3017   2.3076   2.3126   2.3180   2.3238   2.3267   2.3281   2.3369
  2.3401   2.3482   2.3487   2.3530   2.3626   2.3713   2.3758   2.3820
  2.3845   2.3879   2.3942   2.3990   2.4035   2.4055   2.4125   2.4191
  2.4280   2.4321   2.4370   2.4409   2.4469   2.4500   2.4598   2.4641
  2.4655   2.4679   2.4760   2.4798   2.4831   2.4854   2.4905   2.4955
  2.5004   2.5033   2.5093   2.5154   2.5206   2.5243   2.5277   2.5347
  2.5434   2.5446   2.5576   2.5620   2.5644   2.5719   2.5800   2.5866
  2.5905   2.5935   2.5999   2.6082   2.6125   2.6162   2.6218   2.6298
  2.6375   2.6398   2.6495   2.6583   2.6708   2.6836   2.6850   2.6944
  2.6978   2.7035   2.7074   2.7180   2.7224   2.7257   2.7335   2.7363
  2.7437   2.7483   2.7514   2.7538   2.7641   2.7671   2.7816   2.7846
  2.7853   2.7923   2.8020   2.8130   2.8213   2.8291   2.8381   2.8409
  2.8436   2.8505   2.8561   2.8585   2.8735   2.8889   2.8905   2.8935
  2.9013   2.9075   2.9174   2.9264   2.9312   2.9341   2.9495   2.9574
  2.9636   2.9754   2.9889   2.9961   3.0075   3.0213   3.0251   3.0490
  3.0535   3.0578   3.0698   3.1015   3.1086   3.1156   3.1275   3.1375
  3.1478   3.1669   3.1790   3.2088   3.2205   3.2380   3.2469   3.2615
  3.2745   3.2770   3.3003   3.3228   3.3447   3.3690   3.3763   3.3953
  3.4132   3.4344   3.4457   3.4502   3.4661   3.4676   3.4754   3.4808
  3.4909   3.4949   3.5027   3.5030   3.5115   3.5148   3.5185   3.5229
  3.5300   3.5364   3.5423   3.5471   3.5523   3.5543   3.5594   3.5658
  3.5719   3.5761   3.5811   3.5823   3.5849   3.5982   3.6072   3.6123
  3.6205   3.6241   3.6387   3.6444   3.6577   3.6720   3.6826   3.6861
  3.6916   3.6948   3.7082   3.7139   3.7198   3.7237   3.7409   3.7539
  3.7605   3.7745   3.7807   3.7962   3.8088   3.8203   3.8222   3.8240
  3.8365   3.8467   3.8605   3.8649   3.8837   3.8965   3.9086   3.9390
  3.9489   3.9753   3.9857   3.9956   4.0006   4.0132   4.0245   4.0385
  4.0523   4.0773   4.0995   4.1385   4.1654   4.1687   4.1806   4.2238
  4.2340   4.3155   4.3517   4.3781   4.3941   4.4575   4.4799   4.5342
  4.6278   4.6761   4.7069
 --------------------------------------------------------------
 
          Ground-State Mulliken Net Atomic Charges

     Atom                 Charge (a.u.)    Spin (a.u.)
  --------------------------------------------------------
      1 C                    -1.154572      -0.025971
      2 C                     0.443257      -0.001578
      3 H                    -0.532437       0.000083
      4 N                     0.288017      -0.005554
      5 H                    -0.014681       0.000433
      6 C                     1.038699       0.000216
      7 O                    -0.917195      -0.000013
      8 C                     0.648422      -0.001282
      9 O                    -0.906128       0.001147
     10 N                     0.678538       0.013391
     11 C                     1.491705       0.011133
     12 H                    -0.277679       0.000222
     13 H                    -0.379271       0.002481
     14 C                    -0.227374       0.038342
     15 C                     0.791268      -0.008079
     16 C                     0.907070      -0.001235
     17 H                    -0.379603      -0.000782
     18 H                    -0.556710      -0.000873
     19 C                     0.880695       0.002015
     20 O                    -0.869189       0.000960
     21 N                     0.622890      -0.002507
     22 H                    -0.275098      -0.001030
     23 C                     1.100164       0.000292
     24 O                    -0.975183       0.000023
     25 C                    -0.869464      -0.016486
     26 N                     1.266403       0.015867
     27 C                     1.264935       0.001341
     28 H                    -0.549312       0.000968
     29 H                    -0.507533       0.001517
     30 C                     1.024723       0.004892
     31 H                    -0.249093       0.000458
     32 H                    -0.072096      -0.000413
     33 C                     0.796701       0.000707
     34 H                    -0.397903       0.000017
     35 H                    -0.316583       0.000233
     36 C                     0.989718      -0.001873
     37 H                    -0.695898       0.005439
     38 H                    -0.422890       0.000225
     39 C                     0.648867       0.000144
     40 H                    -0.266615      -0.000562
     41 H                    -0.395714       0.000245
     42 C                     0.407745      -0.000496
     43 H                    -0.431387       0.000145
     44 C                     0.855907       0.001119
     45 H                    -0.203127       0.000762
     46 H                    -0.369766      -0.000370
     47 C                     1.412517       0.006462
     48 H                    -0.207179       0.000655
     49 H                    -0.296095       0.001132
     50 C                     0.843055      -0.000216
     51 H                    -0.974778       0.002603
     52 H                    -0.413810      -0.000048
     53 C                     0.803426       0.001149
     54 H                    -0.279082      -0.000324
     55 H                    -0.385008       0.000134
     56 O                    -0.867222       0.000274
     57 O                    -0.935055       0.000205
     58 O                    -1.043829       0.244416
     59 Fe                    1.584917       4.138782
     60 O                    -0.934079       0.100801
     61 O                    -0.413550       0.098587
     62 O                    -1.099906       0.133007
     63 O                    -0.803158       0.071268
     64 O                    -0.864486       0.016336
     65 O                    -1.208718       0.148490
     66 H                     0.011769       0.000046
     67 H                     0.016043       0.001498
     68 C                     0.895699      -0.002971
     69 H                    -0.383315       0.000282
     70 H                    -0.391378       0.001720
  --------------------------------------------------------
  Sum of atomic charges =    -3.000000
  Sum of spin   charges =     5.000000

 -----------------------------------------------------------------
                    Cartesian Multipole Moments
 -----------------------------------------------------------------
    Charge (ESU x 10^10)
               -14.4096
    Dipole Moment (Debye)
         X      -3.2941      Y      25.3061      Z     -11.6615
       Tot      28.0578
    Quadrupole Moments (Debye-Ang)
        XX    -464.1090     XY      11.9446     YY    -326.7024
        XZ      -3.4889     YZ     -36.4499     ZZ    -337.4539
    Octopole Moments (Debye-Ang^2)
       XXX    -453.2906    XXY     639.7509    XYY     -26.6639
       YYY     316.5528    XXZ     114.4098    XYZ      46.4525
       YYZ     -23.3791    XZZ     131.3394    YZZ     153.9701
       ZZZ    -233.1524
    Hexadecapole Moments (Debye-Ang^3)
      XXXX  -20516.2511   XXXY     758.1394   XXYY   -4361.9570
      XYYY     220.8660   YYYY   -7191.1372   XXXZ     169.8046
      XXYZ    -536.9049   XYYZ     -48.5888   YYYZ     266.3457
      XXZZ   -3989.7444   XYZZ    -288.4180   YYZZ   -2141.9705
      XZZZ     498.3172   YZZZ     263.5750   ZZZZ   -5890.9151
 -----------------------------------------------------------------
 Total job time:  385016.02s(wall), 6232382.11s(cpu) 
 Mon May 27 19:01:56 2024

        *************************************************************
        *                                                           *
        *  Thank you very much for using Q-Chem.  Have a nice day.  *
        *                                                           *
        *************************************************************


