
Running Job 1 of 1 C_FeAB_C_ccL_3sextet_SfS_tpsshD3bj_ccpvdz_pcmH2O_OPT.in
qchem C_FeAB_C_ccL_3sextet_SfS_tpsshD3bj_ccpvdz_pcmH2O_OPT.in_3231208.0 /var/scratch/qchem3231208/ 0
/usr/local/q-chem/exe/qcprog.exe_s C_FeAB_C_ccL_3sextet_SfS_tpsshD3bj_ccpvdz_pcmH2O_OPT.in_3231208.0 /var/scratch/qchem3231208/
                  Welcome to Q-Chem
     A Quantum Leap Into The Future Of Chemistry


 Q-Chem 6.0, Q-Chem, Inc., Pleasanton, CA (2022)

 E. Epifanovsky,  A. T. B. Gilbert,  Xintian Feng,  Joonho Lee,  Yuezhi Mao,  
 N. Mardirossian,  P. Pokhilko,  A. White,  M. Wormit,  M. P. Coons,  
 A. L. Dempwolff,  Zhengting Gan,  D. Hait,  P. R. Horn,  L. D. Jacobson,  
 I. Kaliman,  J. Kussmann,  A. W. Lange,  Ka Un Lao,  D. S. Levine,  Jie Liu,  
 S. C. McKenzie,  A. F. Morrison,  K. Nanda,  F. Plasser,  D. R. Rehn,  
 M. L. Vidal,  Zhi-Qiang You,  Ying Zhu,  B. Alam,  B. Albrecht,  
 A. Aldossary,  E. Alguire,  J. H. Andersen,  V. Athavale,  D. Barton,  
 K. Begam,  A. Behn,  N. Bellonzi,  Y. A. Bernard,  E. J. Berquist,  
 H. Burton,  A. Carreras,  K. Carter-Fenk,  Romit Chakraborty,  
 Chandrima Chakravarty,  Junhan Chen,  A. D. Chien,  K. D. Closser,  
 V. Cofer-Shabica,  L. Cunha,  S. Dasgupta,  Jia Deng,  M. de Wergifosse,  
 M. Diedenhofen,  Hainam Do,  S. Ehlert,  Po-Tung Fang,  S. Fatehi,  
 Qingguo Feng,  T. Friedhoff,  B. Ganoe,  J. Gayvert,  Qinghui Ge,  
 G. Gidofalvi,  M. Goldey,  J. Gomes,  C. Gonzalez-Espinoza,  S. Gulania,  
 A. Gunina,  J. A. Gyamfi,  M. W. D. Hanson-Heine,  P. H. P. Harbach,  
 A. W. Hauser,  M. F. Herbst,  M. Hernandez Vera,  M. Hodecker,  
 Z. C. Holden,  S. Houck,  Xunkun Huang,  Kerwin Hui,  B. C. Huynh,  
 K. Ikeda,  M. Ivanov,  Hyunjun Ji,  Zuxin Jin,  Hanjie Jiang,  B. Kaduk,  
 S. Kaehler,  R. Kang,  K. Khistyaev,  Jaehoon Kim,  Yongbin Kim,  
 P. Klunzinger,  Z. Koczor-Benda,  Joong Hoon Koh,  D. Kosenkov,  
 Saikiran Kotaru,  L. Koulias,  T. Kowalczyk,  C. M. Krauter,  K. Kue,  
 A. Kunitsa,  T. Kus,  A. Landau,  K. V. Lawler,  D. Lefrancois,  S. Lehtola,  
 Rain Li,  Shaozhi Li,  Yi-Pei Li,  Jiashu Liang,  M. Liebenthal,  
 Hung-Hsuan Lin,  You-Sheng Lin,  Fenglai Liu,  Kuan-Yu Liu,  
 M. Loipersberger,  A. Luenser,  C. Malbon,  A. Manjanath,  P. Manohar,  
 E. Mansoor,  S. F. Manzer,  Shan-Ping Mao,  A. V. Marenich,  T. Markovich,  
 S. Mason,  F. Matz,  S. A. Maurer,  P. F. McLaughlin,  M. F. S. J. Menger,  
 J.-M. Mewes,  S. A. Mewes,  P. Morgante,  Mohammad Mostafanejad,  
 J. W. Mullinax,  K. J. Oosterbaan,  G. Paran,  V. Parravicini,  
 Alexander C. Paul,  Suranjan K. Paul,  F. Pavosevic,  Zheng Pei,  S. Prager,  
 E. I. Proynov,  E. Ramos,  B. Rana,  A. E. Rask,  A. Rettig,  R. M. Richard,  
 F. Rob,  E. Rossomme,  T. Scheele,  M. Scheurer,  M. Schneider,  
 P. E. Schneider,  N. Sergueev,  S. M. Sharada,  Hengyuan Shen,  
 W. Skomorowski,  D. W. Small,  C. J. Stein,  Yingli Su,  Yu-Chuan Su,  
 E. J. Sundstrom,  Zhen Tao,  J. Thirman,  Hung-Yi Tsai,  T. Tsuchimochi,  
 N. M. Tubman,  C. Utku,  S. P. Veccham,  O. Vydrov,  J. Wenzel,  
 Jonathan Wong,  J. Witte,  A. Yamada,  Chou-Hsun Yang,  Kun Yao,  
 S. Yeganeh,  S. R. Yost,  A. Zech,  F. Zeller,  Igor Ying Zhang,  
 Xing Zhang,  Yu Zhang,  D. Zuev,  A. Aspuru-Guzik,  A. T. Bell,  
 N. A. Besley,  K. B. Bravaya,  B. R. Brooks,  D. Casanova,  Jeng-Da Chai,  
 Hsing-Ta Chen,  S. Coriani,  C. J. Cramer,  A. E. DePrince, III,  
 R. A. DiStasio Jr.,  A. Dreuw,  B. D. Dunietz,  T. R. Furlani,  
 W. A. Goddard III,  S. Grimme,  S. Hammes-Schiffer,  T. Head-Gordon,  
 W. J. Hehre,  Chao-Ping Hsu,  T.-C. Jagau,  Yousung Jung,  A. Klamt,  
 Jing Kong,  D. S. Lambrecht,  Xiangyuan Li,  WanZhen Liang,  N. J. Mayhall,  
 C. W. McCurdy,  J. B. Neaton,  T. Neudecker,  C. Ochsenfeld,  
 J. A. Parkhill,  R. Peverati,  V. A. Rassolov,  Haisheng Ren,  Yihan Shao,  
 L. V. Slipchenko,  R. P. Steele,  J. E. Subotnik,  A. J. W. Thom,  
 A. Tkatchenko,  D. G. Truhlar,  T. Van Voorhis,  Fan Wang,  
 T. A. Wesolowski,  K. B. Whaley,  H. L. Woodcock III,  P. M. Zimmerman,  
 S. Faraji,  P. M. W. Gill,  M. Head-Gordon,  J. M. Herbert,  A. I. Krylov

 Contributors to earlier versions of Q-Chem not listed above: 
 R. D. Adamson,  B. Austin,  R. Baer,  J. Baker,  G. J. O. Beran,  
 K. Brandhorst,  S. T. Brown,  E. F. C. Byrd,  Arup K. Chakraborty,  
 G. K. L. Chan,  Chun-Min Chang,  Yunqing Chen,  C.-L. Cheng,  
 Siu Hung Chien,  D. M. Chipman,  D. L. Crittenden,  H. Dachsel,  
 R. J. Doerksen,  A. D. Dutoi,  R. G. Edgar,  J. Fosso-Tande,  
 L. Fusti-Molnar,  D. Ghosh,  A. Ghysels,  A. Golubeva-Zadorozhnaya,  
 J. Gonthier,  M. S. Gordon,  S. R. Gwaltney,  G. Hawkins,  J. E. Herr,  
 A. Heyden,  S. Hirata,  E. G. Hohenstein,  G. Kedziora,  F. J. Keil,  
 C. Kelley,  Jihan Kim,  R. A. King,  R. Z. Khaliullin,  P. P. Korambath,  
 W. Kurlancheek,  A. Laurent,  A. M. Lee,  M. S. Lee,  S. V. Levchenko,  
 Ching Yeh Lin,  D. Liotard,  E. Livshits,  R. C. Lochan,  I. Lotan,  
 L. A. Martinez-Martinez,  P. E. Maslen,  N. Nair,  D. P. O'Neill,  
 D. Neuhauser,  E. Neuscamman,  C. M. Oana,  R. Olivares-Amaya,  R. Olson,  
 T. M. Perrine,  B. Peters,  P. A. Pieniazek,  A. Prociuk,  Y. M. Rhee,  
 J. Ritchie,  M. A. Rohrdanz,  E. Rosta,  N. J. Russ,  H. F. Schaefer III,  
 M. W. Schmidt,  N. E. Schultz,  S. Sharma,  N. Shenvi,  C. D. Sherrill,  
 A. C. Simmonett,  A. Sodt,  T. Stein,  D. Stuck,  K. S. Thanthiriwatte,  
 V. Vanovschi,  L. Vogt,  Tao Wang,  A. Warshel,  M. A. Watson,  
 C. F. Williams,  Q. Wu,  X. Xu,  Jun Yang,  W. Zhang,  Yan Zhao

   Please cite Q-Chem as follows:
  "Software for the frontiers of quantum chemistry:
   An overview of developments in the Q-Chem 5 package"
   J. Chem. Phys. 155, 084801 (2021)
   https://doi.org/10.1063/5.0055522 (open access)

 Q-Chem 6.0.2 for Intel X86 EM64T Linux

 Parts of Q-Chem use Armadillo 9.900.5 (Nocturnal Misbehaviour).
 http://arma.sourceforge.net/

 Q-Chem begins on Wed May 22 12:27:45 2024  

 Host: 
0

     Scratch files written to /var/scratch/qchem3231208//
 Dec722 |scratch|qcdevops|jenkins|workspace|build_RNUM 8907   
 Processing $rem in /usr/local/q-chem/config/preferences:
 Processing $rem in /home/acooksy/.qchemrc:
 Symmetry turned off for PCM/SM12/SMD calculation

 Checking the input file for inconsistencies... 	...done.

--------------------------------------------------------------
User input:
--------------------------------------------------------------
$molecule
-3 6
N   -2.4262102    2.5604723   -0.8388025
C   -4.3697264   -2.3336989   -0.1243507
H   -4.9163457   -2.9093987    0.6470413
N   -2.9499868   -2.3379094    0.2046549
H   -2.4124937   -2.8745561   -0.4769806
C   -4.5455961   -3.0993934   -1.4737688
O   -5.7154687   -3.1484993   -1.9280402
C   -2.4071864   -1.9391830    1.3721450
O   -3.0622167   -1.3505365    2.2496255
C   -2.0260630    3.5569212   -0.0511169
C   -2.8224130    4.8326616    0.0355603
H   -2.9682921    5.2877820   -0.9554896
H   -3.8154730    4.6506223    0.4749855
H   -2.2735848    5.5343202    0.6753001
C   -0.9430901   -2.2984130    1.5792450
H   -0.5813581   -2.9897818    0.8076472
H   -0.8907196   -2.8071863    2.5541622
C    0.0248566   -1.0904764    1.6136425
C   -0.4023025   -0.0945765    2.7302256
C    1.4595839   -1.5656434    1.9909156
H    1.4140664   -2.2467807    2.8538641
H    2.0406134   -0.6806518    2.2864484
C    2.1625088   -2.2635353    0.8394093
O    1.7302344   -3.3027351    0.3116678
N    3.2951585   -1.6595203    0.4289569
H    3.7112878   -0.9028188    0.9688634
C    5.5855270   -1.5076207   -0.4073526
O    6.4751314   -1.8720256   -1.2109804
N    2.3914871    2.0758288   -0.9324525
C    2.7142644    2.1492393    0.3542508
C    4.1437604    2.3318265    0.7774986
H    4.1514166    2.7719598    1.7833001
H    4.6598169    1.3558948    0.8110818
H    4.6994620    2.9843751    0.0899630
C    3.3172906    1.9925213   -2.0649954
H    2.7035038    2.2093245   -2.9495150
H    4.0716868    2.7879089   -1.9726642
C    3.9927289    0.6221881   -2.1631300
H    4.6786713    0.6320796   -3.0287325
H    4.6205966    0.4922398   -1.2721198
C    3.0007509   -0.5398420   -2.2649117
H    2.2018479   -0.3838117   -1.5239185
H    2.5126842   -0.5208691   -3.2557272
C    3.6132403   -1.9260634   -2.0320803
H    2.8324926   -2.6821713   -2.2133668
H    4.4345799   -2.1257699   -2.7395310
C    4.1798414   -2.1519367   -0.6100848
H    4.3115437   -3.2410287   -0.4841466
C   -4.6661962    1.4818041   -0.9598821
H   -4.7163975    1.7087111    0.1202045
H   -5.6686564    1.6954810   -1.3701588
C   -3.6718365    2.4648034   -1.5943758
H   -4.1047336    3.4700505   -1.6521166
H   -3.4091848    2.1495764   -2.6177236
C   -4.3069943    0.0039695   -1.1649159
H   -3.2225310   -0.1024074   -1.0432693
H   -4.5450688   -0.2942986   -2.2020456
C   -4.9985800   -0.9313343   -0.1757820
H   -4.9406598   -0.4949368    0.8330492
H   -6.0630384   -1.0627410   -0.4265266
O   -3.5035423   -3.6032774   -1.9812468
O    5.7053501   -0.6821135    0.5482107
O    0.0656825   -0.4509090    0.3732389
Fe   -0.0829581    1.4589670    0.3683627
O   -0.6582137    1.1066293    2.3136245
O   -1.6709869    1.4268675   -0.8297078
O   -0.9580370    3.4058589    0.6257068
O    1.0734615    1.8875961   -1.2350858
O   -0.4246347   -0.4524129    3.9146550
O    1.7841578    2.0491767    1.2237764
$end

$rem
BASIS  =  gen
CORRELATION  =  TPSS
DFT_D  =  D3_BJ
EXCHANGE  =  TPSSH
GUI  =  2
JOB_TYPE  =  Optimization
SCF_CONVERGENCE  =  8
SOLVENT_METHOD  =  PCM
$end

$pcm
THEORY  CPCM
$end

$solvent
DIELECTRIC  78.39
$end

$van_der_waals
26   2.44
$end

!----------------------------------------------------------------------
! Basis Set Exchange
! Basis set: cc-pVDZ
!----------------------------------------------------------------------

$rem
BASIS GEN
PURECART 11
$end

$basis
H     0
S   4   1.00
1.301000D+01           1.968500D-02
1.962000D+00           1.379770D-01
4.446000D-01           4.781480D-01
1.220000D-01           5.012400D-01
S   1   1.00
1.220000D-01           1.000000D+00
P   1   1.00
7.270000D-01           1.0000000
****
C     0
S   9   1.00
6.665000D+03           6.920000D-04
1.000000D+03           5.329000D-03
2.280000D+02           2.707700D-02
6.471000D+01           1.017180D-01
2.106000D+01           2.747400D-01
7.495000D+00           4.485640D-01
2.797000D+00           2.850740D-01
5.215000D-01           1.520400D-02
1.596000D-01          -3.191000D-03
S   9   1.00
6.665000D+03          -1.460000D-04
1.000000D+03          -1.154000D-03
2.280000D+02          -5.725000D-03
6.471000D+01          -2.331200D-02
2.106000D+01          -6.395500D-02
7.495000D+00          -1.499810D-01
2.797000D+00          -1.272620D-01
5.215000D-01           5.445290D-01
1.596000D-01           5.804960D-01
S   1   1.00
1.596000D-01           1.000000D+00
P   4   1.00
9.439000D+00           3.810900D-02
2.002000D+00           2.094800D-01
5.456000D-01           5.085570D-01
1.517000D-01           4.688420D-01
P   1   1.00
1.517000D-01           1.000000D+00
D   1   1.00
5.500000D-01           1.0000000
****
N     0
S   9   1.00
9.046000D+03           7.000000D-04
1.357000D+03           5.389000D-03
3.093000D+02           2.740600D-02
8.773000D+01           1.032070D-01
2.856000D+01           2.787230D-01
1.021000D+01           4.485400D-01
3.838000D+00           2.782380D-01
7.466000D-01           1.544000D-02
2.248000D-01          -2.864000D-03
S   9   1.00
9.046000D+03          -1.530000D-04
1.357000D+03          -1.208000D-03
3.093000D+02          -5.992000D-03
8.773000D+01          -2.454400D-02
2.856000D+01          -6.745900D-02
1.021000D+01          -1.580780D-01
3.838000D+00          -1.218310D-01
7.466000D-01           5.490030D-01
2.248000D-01           5.788150D-01
S   1   1.00
2.248000D-01           1.000000D+00
P   4   1.00
1.355000D+01           3.991900D-02
2.917000D+00           2.171690D-01
7.973000D-01           5.103190D-01
2.185000D-01           4.622140D-01
P   1   1.00
2.185000D-01           1.000000D+00
D   1   1.00
8.170000D-01           1.0000000
****
O     0
S   9   1.00
1.172000D+04           7.100000D-04
1.759000D+03           5.470000D-03
4.008000D+02           2.783700D-02
1.137000D+02           1.048000D-01
3.703000D+01           2.830620D-01
1.327000D+01           4.487190D-01
5.025000D+00           2.709520D-01
1.013000D+00           1.545800D-02
3.023000D-01          -2.585000D-03
S   9   1.00
1.172000D+04          -1.600000D-04
1.759000D+03          -1.263000D-03
4.008000D+02          -6.267000D-03
1.137000D+02          -2.571600D-02
3.703000D+01          -7.092400D-02
1.327000D+01          -1.654110D-01
5.025000D+00          -1.169550D-01
1.013000D+00           5.573680D-01
3.023000D-01           5.727590D-01
S   1   1.00
3.023000D-01           1.000000D+00
P   4   1.00
1.770000D+01           4.301800D-02
3.854000D+00           2.289130D-01
1.046000D+00           5.087280D-01
2.753000D-01           4.605310D-01
P   1   1.00
2.753000D-01           1.000000D+00
D   1   1.00
1.185000D+00           1.0000000
****
Fe     0
S   20   1.00
4.316265D+06           8.048803D-06
6.463424D+05           6.258306D-05
1.470897D+05           3.290239D-04
4.166152D+04           1.387355D-03
1.359077D+04           5.023256D-03
4.905750D+03           1.610140D-02
1.912746D+03           4.590034D-02
7.926043D+02           1.136154D-01
3.448065D+02           2.283869D-01
1.558999D+02           3.221159D-01
7.223091D+01           2.383661D-01
3.272506D+01           7.404667D-02
1.566762D+01           9.214197D-02
7.503483D+00           9.339790D-02
3.312223D+00           1.573965D-02
1.558471D+00          -4.186682D-04
6.839140D-01           5.376318D-05
1.467570D-01          -3.816654D-05
7.058300D-02           4.319603D-05
3.144900D-02          -3.401019D-06
S   20   1.00
4.316265D+06          -4.155954D-06
6.463424D+05          -3.231401D-05
1.470897D+05          -1.699525D-04
4.166152D+04          -7.171369D-04
1.359077D+04          -2.603625D-03
4.905750D+03          -8.399109D-03
1.912746D+03          -2.434109D-02
7.926043D+02          -6.251948D-02
3.448065D+02          -1.365929D-01
1.558999D+02          -2.312707D-01
7.223091D+01          -2.383734D-01
3.272506D+01           3.123837D-02
1.566762D+01           5.086818D-01
7.503483D+00           4.987695D-01
3.312223D+00           9.033552D-02
1.558471D+00          -6.005337D-03
6.839140D-01           2.312454D-04
1.467570D-01          -5.643680D-04
7.058300D-02           4.992260D-04
3.144900D-02          -1.015293D-04
S   20   1.00
4.316265D+06           9.532178D-07
6.463424D+05           7.414605D-06
1.470897D+05           3.898393D-05
4.166152D+04           1.647152D-04
1.359077D+04           5.985980D-04
4.905750D+03           1.942390D-03
1.912746D+03           5.687237D-03
7.926043D+02           1.501329D-02
3.448065D+02           3.452455D-02
1.558999D+02           6.495820D-02
7.223091D+01           7.716194D-02
3.272506D+01          -1.873411D-02
1.566762D+01          -3.009185D-01
7.503483D+00          -4.554661D-01
3.312223D+00           1.286463D-01
1.558471D+00           7.183316D-01
6.839140D-01           4.051743D-01
1.467570D-01           2.168227D-02
7.058300D-02          -8.343566D-03
3.144900D-02           3.658979D-03
S   20   1.00
4.316265D+06          -2.063008D-07
6.463424D+05          -1.604169D-06
1.470897D+05          -8.438437D-06
4.166152D+04          -3.563151D-05
1.359077D+04          -1.295998D-04
4.905750D+03          -4.201534D-04
1.912746D+03          -1.231954D-03
7.926043D+02          -3.248922D-03
3.448065D+02          -7.493717D-03
1.558999D+02          -1.410102D-02
7.223091D+01          -1.691600D-02
3.272506D+01           4.218996D-03
1.566762D+01           6.833810D-02
7.503483D+00           1.098201D-01
3.312223D+00          -4.009005D-02
1.558471D+00          -2.174739D-01
6.839140D-01          -2.465135D-01
1.467570D-01           2.731435D-01
7.058300D-02           5.748321D-01
3.144900D-02           3.012713D-01
S   20   1.00
4.316265D+06          -4.009367D-07
6.463424D+05          -3.189255D-06
1.470897D+05          -1.623079D-05
4.166152D+04          -7.157920D-05
1.359077D+04          -2.463958D-04
4.905750D+03          -8.544907D-04
1.912746D+03          -2.307593D-03
7.926043D+02          -6.728292D-03
3.448065D+02          -1.366165D-02
1.558999D+02          -3.062240D-02
7.223091D+01          -2.631137D-02
3.272506D+01          -9.760183D-03
1.566762D+01           1.801906D-01
7.503483D+00           1.529634D-01
3.312223D+00           5.505413D-02
1.558471D+00          -9.551364D-01
6.839140D-01           2.586813D-01
1.467570D-01           1.834049D+00
7.058300D-02          -9.333240D-01
3.144900D-02          -6.981605D-01
S   1   1.00
3.144900D-02           1.000000D+00
P   16   1.00
1.774569D+04           4.100000D-05
4.200721D+03           3.690000D-04
1.364429D+03           2.129000D-03
5.220806D+02           9.369000D-03
2.214595D+02           3.309700D-02
1.009096D+02           9.443100D-02
4.840115D+01           2.080770D-01
2.398536D+01           3.323330D-01
1.218250D+01           3.329870D-01
6.242298D+00           1.568430D-01
3.110944D+00           2.154900D-02
1.509958D+00          -2.095000D-03
7.108450D-01          -1.739000D-03
2.731900D-01          -3.000000D-04
1.042330D-01           2.900000D-05
3.829100D-02          -1.100000D-05
P   16   1.00
1.774569D+04          -1.500000D-05
4.200721D+03          -1.300000D-04
1.364429D+03          -7.510000D-04
5.220806D+02          -3.329000D-03
2.214595D+02          -1.191200D-02
1.009096D+02          -3.493300D-02
4.840115D+01          -7.998900D-02
2.398536D+01          -1.346360D-01
1.218250D+01          -1.385980D-01
6.242298D+00           3.027800D-02
3.110944D+00           3.332160D-01
1.509958D+00           4.561530D-01
7.108450D-01           2.850510D-01
2.731900D-01           4.614400D-02
1.042330D-01          -3.249000D-03
3.829100D-02           1.357000D-03
P   16   1.00
1.774569D+04           5.000000D-06
4.200721D+03           4.200000D-05
1.364429D+03           2.410000D-04
5.220806D+02           1.085000D-03
2.214595D+02           3.831000D-03
1.009096D+02           1.142300D-02
4.840115D+01           2.579200D-02
2.398536D+01           4.481800D-02
1.218250D+01           4.459800D-02
6.242298D+00          -1.117700D-02
3.110944D+00          -1.381340D-01
1.509958D+00          -1.882850D-01
7.108450D-01          -1.073990D-01
2.731900D-01           4.448630D-01
1.042330D-01           6.402390D-01
3.829100D-02           6.445700D-02
P   16   1.00
1.774569D+04           3.000000D-06
4.200721D+03           2.900000D-05
1.364429D+03           1.650000D-04
5.220806D+02           7.340000D-04
2.214595D+02           2.626000D-03
1.009096D+02           7.725000D-03
4.840115D+01           1.773300D-02
2.398536D+01           3.005500D-02
1.218250D+01           3.109400D-02
6.242298D+00          -1.004800D-02
3.110944D+00          -8.830600D-02
1.509958D+00          -1.298240D-01
7.108450D-01          -7.693700D-02
2.731900D-01           2.126610D-01
1.042330D-01           5.730610D-01
3.829100D-02           3.696510D-01
P   1   1.00
3.829100D-02           1.000000D+00
D   8   1.00
1.133440D+02           3.530000D-03
3.364140D+01           2.578400D-02
1.233100D+01           9.911900D-02
4.994780D+00           2.390730D-01
2.072800D+00           3.571990D-01
8.307530D-01           3.621880D-01
3.091780D-01           2.364610D-01
1.001300D-01           6.011800D-02
D   8   1.00
1.133440D+02          -3.890000D-03
3.364140D+01          -2.844200D-02
1.233100D+01          -1.124290D-01
4.994780D+00          -2.742570D-01
2.072800D+00          -3.155460D-01
8.307530D-01           5.710900D-02
3.091780D-01           5.636040D-01
1.001300D-01           3.846370D-01
D   1   1.00
1.001300D-01           1.000000D+00
F   2   1.00
3.224300D+00           4.222490D-01
7.758000D-01           7.714680D-01
****
$end

--------------------------------------------------------------
 Adding empirical dispersion correction 
 ----------------------------------------------------------------
 Doing -D3(BJ) with
 s6  =   1.00000
 s8  =   2.23820
 a1  =   0.45290
 a2  =   4.65500
 -D3 energy without 3body term =     -0.1230219410 hartrees
 ----------------------------------------------------------------
             Standard Nuclear Orientation (Angstroms)
    I     Atom           X                Y                Z
 ----------------------------------------------------------------
    1      N      -2.4262102000     2.5604723000    -0.8388025000
    2      C      -4.3697264000    -2.3336989000    -0.1243507000
    3      H      -4.9163457000    -2.9093987000     0.6470413000
    4      N      -2.9499868000    -2.3379094000     0.2046549000
    5      H      -2.4124937000    -2.8745561000    -0.4769806000
    6      C      -4.5455961000    -3.0993934000    -1.4737688000
    7      O      -5.7154687000    -3.1484993000    -1.9280402000
    8      C      -2.4071864000    -1.9391830000     1.3721450000
    9      O      -3.0622167000    -1.3505365000     2.2496255000
   10      C      -2.0260630000     3.5569212000    -0.0511169000
   11      C      -2.8224130000     4.8326616000     0.0355603000
   12      H      -2.9682921000     5.2877820000    -0.9554896000
   13      H      -3.8154730000     4.6506223000     0.4749855000
   14      H      -2.2735848000     5.5343202000     0.6753001000
   15      C      -0.9430901000    -2.2984130000     1.5792450000
   16      H      -0.5813581000    -2.9897818000     0.8076472000
   17      H      -0.8907196000    -2.8071863000     2.5541622000
   18      C       0.0248566000    -1.0904764000     1.6136425000
   19      C      -0.4023025000    -0.0945765000     2.7302256000
   20      C       1.4595839000    -1.5656434000     1.9909156000
   21      H       1.4140664000    -2.2467807000     2.8538641000
   22      H       2.0406134000    -0.6806518000     2.2864484000
   23      C       2.1625088000    -2.2635353000     0.8394093000
   24      O       1.7302344000    -3.3027351000     0.3116678000
   25      N       3.2951585000    -1.6595203000     0.4289569000
   26      H       3.7112878000    -0.9028188000     0.9688634000
   27      C       5.5855270000    -1.5076207000    -0.4073526000
   28      O       6.4751314000    -1.8720256000    -1.2109804000
   29      N       2.3914871000     2.0758288000    -0.9324525000
   30      C       2.7142644000     2.1492393000     0.3542508000
   31      C       4.1437604000     2.3318265000     0.7774986000
   32      H       4.1514166000     2.7719598000     1.7833001000
   33      H       4.6598169000     1.3558948000     0.8110818000
   34      H       4.6994620000     2.9843751000     0.0899630000
   35      C       3.3172906000     1.9925213000    -2.0649954000
   36      H       2.7035038000     2.2093245000    -2.9495150000
   37      H       4.0716868000     2.7879089000    -1.9726642000
   38      C       3.9927289000     0.6221881000    -2.1631300000
   39      H       4.6786713000     0.6320796000    -3.0287325000
   40      H       4.6205966000     0.4922398000    -1.2721198000
   41      C       3.0007509000    -0.5398420000    -2.2649117000
   42      H       2.2018479000    -0.3838117000    -1.5239185000
   43      H       2.5126842000    -0.5208691000    -3.2557272000
   44      C       3.6132403000    -1.9260634000    -2.0320803000
   45      H       2.8324926000    -2.6821713000    -2.2133668000
   46      H       4.4345799000    -2.1257699000    -2.7395310000
   47      C       4.1798414000    -2.1519367000    -0.6100848000
   48      H       4.3115437000    -3.2410287000    -0.4841466000
   49      C      -4.6661962000     1.4818041000    -0.9598821000
   50      H      -4.7163975000     1.7087111000     0.1202045000
   51      H      -5.6686564000     1.6954810000    -1.3701588000
   52      C      -3.6718365000     2.4648034000    -1.5943758000
   53      H      -4.1047336000     3.4700505000    -1.6521166000
   54      H      -3.4091848000     2.1495764000    -2.6177236000
   55      C      -4.3069943000     0.0039695000    -1.1649159000
   56      H      -3.2225310000    -0.1024074000    -1.0432693000
   57      H      -4.5450688000    -0.2942986000    -2.2020456000
   58      C      -4.9985800000    -0.9313343000    -0.1757820000
   59      H      -4.9406598000    -0.4949368000     0.8330492000
   60      H      -6.0630384000    -1.0627410000    -0.4265266000
   61      O      -3.5035423000    -3.6032774000    -1.9812468000
   62      O       5.7053501000    -0.6821135000     0.5482107000
   63      O       0.0656825000    -0.4509090000     0.3732389000
   64      Fe     -0.0829581000     1.4589670000     0.3683627000
   65      O      -0.6582137000     1.1066293000     2.3136245000
   66      O      -1.6709869000     1.4268675000    -0.8297078000
   67      O      -0.9580370000     3.4058589000     0.6257068000
   68      O       1.0734615000     1.8875961000    -1.2350858000
   69      O      -0.4246347000    -0.4524129000     3.9146550000
   70      O       1.7841578000     2.0491767000     1.2237764000
 ----------------------------------------------------------------
 Nuclear Repulsion Energy =        6061.34214268 hartrees
 There are      164 alpha and      159 beta electrons
 Requested basis set is non-standard
 There are 339 shells and 739 basis functions

 Total QAlloc Memory Limit  64000 MB
 Mega-Array Size       188 MB
 MEM_STATIC part       192 MB

 -----------------------------------------------------------------------
                STARTING GEOMETRY OPTIMIZER USING LIBOPT3
                by Peter F. McLaughlin, Yu Zhang, Evgeny Epifanovsky
 -----------------------------------------------------------------------

              Initial Energy and Gradient Calculation
   -- Checking Topology for Ill-Behaving Coordinates --

 -------------------------------------------
   Coordinate       |  Removed | Additions 
 -------------------------------------------
	Bonds                     0          0
	Angles                    0          0
	Torsions                  0          0
	Co-Linear Type5s          0          0
	Co-Linear Type6s          0          0
 -------------------------------------------
     Done Checking Topology
 Adding empirical dispersion correction 
 ----------------------------------------------------------------
 Doing -D3(BJ) with
 s6  =   1.00000
 s8  =   2.23820
 a1  =   0.45290
 a2  =   4.65500
 -D3 energy without 3body term =     -0.1230219410 hartrees
 ----------------------------------------------------------------
             Standard Nuclear Orientation (Angstroms)
    I     Atom           X                Y                Z
 ----------------------------------------------------------------
    1      N      -2.4262102000     2.5604723000    -0.8388025000
    2      C      -4.3697264000    -2.3336989000    -0.1243507000
    3      H      -4.9163457000    -2.9093987000     0.6470413000
    4      N      -2.9499868000    -2.3379094000     0.2046549000
    5      H      -2.4124937000    -2.8745561000    -0.4769806000
    6      C      -4.5455961000    -3.0993934000    -1.4737688000
    7      O      -5.7154687000    -3.1484993000    -1.9280402000
    8      C      -2.4071864000    -1.9391830000     1.3721450000
    9      O      -3.0622167000    -1.3505365000     2.2496255000
   10      C      -2.0260630000     3.5569212000    -0.0511169000
   11      C      -2.8224130000     4.8326616000     0.0355603000
   12      H      -2.9682921000     5.2877820000    -0.9554896000
   13      H      -3.8154730000     4.6506223000     0.4749855000
   14      H      -2.2735848000     5.5343202000     0.6753001000
   15      C      -0.9430901000    -2.2984130000     1.5792450000
   16      H      -0.5813581000    -2.9897818000     0.8076472000
   17      H      -0.8907196000    -2.8071863000     2.5541622000
   18      C       0.0248566000    -1.0904764000     1.6136425000
   19      C      -0.4023025000    -0.0945765000     2.7302256000
   20      C       1.4595839000    -1.5656434000     1.9909156000
   21      H       1.4140664000    -2.2467807000     2.8538641000
   22      H       2.0406134000    -0.6806518000     2.2864484000
   23      C       2.1625088000    -2.2635353000     0.8394093000
   24      O       1.7302344000    -3.3027351000     0.3116678000
   25      N       3.2951585000    -1.6595203000     0.4289569000
   26      H       3.7112878000    -0.9028188000     0.9688634000
   27      C       5.5855270000    -1.5076207000    -0.4073526000
   28      O       6.4751314000    -1.8720256000    -1.2109804000
   29      N       2.3914871000     2.0758288000    -0.9324525000
   30      C       2.7142644000     2.1492393000     0.3542508000
   31      C       4.1437604000     2.3318265000     0.7774986000
   32      H       4.1514166000     2.7719598000     1.7833001000
   33      H       4.6598169000     1.3558948000     0.8110818000
   34      H       4.6994620000     2.9843751000     0.0899630000
   35      C       3.3172906000     1.9925213000    -2.0649954000
   36      H       2.7035038000     2.2093245000    -2.9495150000
   37      H       4.0716868000     2.7879089000    -1.9726642000
   38      C       3.9927289000     0.6221881000    -2.1631300000
   39      H       4.6786713000     0.6320796000    -3.0287325000
   40      H       4.6205966000     0.4922398000    -1.2721198000
   41      C       3.0007509000    -0.5398420000    -2.2649117000
   42      H       2.2018479000    -0.3838117000    -1.5239185000
   43      H       2.5126842000    -0.5208691000    -3.2557272000
   44      C       3.6132403000    -1.9260634000    -2.0320803000
   45      H       2.8324926000    -2.6821713000    -2.2133668000
   46      H       4.4345799000    -2.1257699000    -2.7395310000
   47      C       4.1798414000    -2.1519367000    -0.6100848000
   48      H       4.3115437000    -3.2410287000    -0.4841466000
   49      C      -4.6661962000     1.4818041000    -0.9598821000
   50      H      -4.7163975000     1.7087111000     0.1202045000
   51      H      -5.6686564000     1.6954810000    -1.3701588000
   52      C      -3.6718365000     2.4648034000    -1.5943758000
   53      H      -4.1047336000     3.4700505000    -1.6521166000
   54      H      -3.4091848000     2.1495764000    -2.6177236000
   55      C      -4.3069943000     0.0039695000    -1.1649159000
   56      H      -3.2225310000    -0.1024074000    -1.0432693000
   57      H      -4.5450688000    -0.2942986000    -2.2020456000
   58      C      -4.9985800000    -0.9313343000    -0.1757820000
   59      H      -4.9406598000    -0.4949368000     0.8330492000
   60      H      -6.0630384000    -1.0627410000    -0.4265266000
   61      O      -3.5035423000    -3.6032774000    -1.9812468000
   62      O       5.7053501000    -0.6821135000     0.5482107000
   63      O       0.0656825000    -0.4509090000     0.3732389000
   64      Fe     -0.0829581000     1.4589670000     0.3683627000
   65      O      -0.6582137000     1.1066293000     2.3136245000
   66      O      -1.6709869000     1.4268675000    -0.8297078000
   67      O      -0.9580370000     3.4058589000     0.6257068000
   68      O       1.0734615000     1.8875961000    -1.2350858000
   69      O      -0.4246347000    -0.4524129000     3.9146550000
   70      O       1.7841578000     2.0491767000     1.2237764000
 ----------------------------------------------------------------
 Nuclear Repulsion Energy =        6061.34214268 hartrees
 There are      164 alpha and      159 beta electrons
 Using C-PCM dielectric factor f(eps) = (eps-1)/eps = 0.987243
No default van der Waals radius is available for Z = 26
	Found R = 2.4400 A in the $van_der_waals section
 Discretize the solute cavity surface with Lebedev spheres
	Using 110 Lebedev grid points for each H atom
	Using 194 Lebedev grid points for other atoms
	Atomic van der Waals radii (Bondi set) will be scaled by 1.20
 Using smooth SwiG surface discretization
 Remove points where switching function is < 1.0e-08
 Keep 4103 surface tesserae and discard 6957 interior tesserae
 Molecular Surface Area = 526.408 Angst**2

 Requested basis set is non-standard
 There are 339 shells and 739 basis functions
 A cutoff of  1.0D-12 yielded  45085 shell pairs
 There are    196217 function pairs (    217704 Cartesian)
 Smallest overlap matrix eigenvalue = 2.93E-04

 Scale SEOQF with 1.000000e-02/1.000000e-02/1.000000e-01

 Standard Electronic Orientation quadrupole field applied
 Nucleus-field energy     =    -0.0000000522 hartrees
 ================ Generating on-the-fly SAD Guess ================
 Attempting to make child job directory: /var/scratch/qchem3231208//Frg1/
 Attempting to make child job directory: /var/scratch/qchem3231208//Frg2/
 Attempting to make child job directory: /var/scratch/qchem3231208//Frg3/
 Attempting to make child job directory: /var/scratch/qchem3231208//Frg4/
 Attempting to make child job directory: /var/scratch/qchem3231208//Frg5/
 Creating input file /var/scratch/qchem3231208/Frg1.input
 using default PutDataFrgm: nothing
 calling putenv with: QCSCRATCH=/var/scratch/qchem3231208/ 
 calling putenv with: BRIANQC_ENABLE=0 
 Spawning Job For Fragment 0
 Done Job For Fragment 0
 calling putenv with: QCSCRATCH=/var/scratch 
 calling putenv with: QCTHREADS=12 
 Creating input file /var/scratch/qchem3231208/Frg2.input
 using default PutDataFrgm: nothing
 calling putenv with: QCSCRATCH=/var/scratch/qchem3231208/ 
 calling putenv with: BRIANQC_ENABLE=0 
 Spawning Job For Fragment 1
 Done Job For Fragment 1
 calling putenv with: QCSCRATCH=/var/scratch 
 calling putenv with: QCTHREADS=12 
 Creating input file /var/scratch/qchem3231208/Frg3.input
 using default PutDataFrgm: nothing
 calling putenv with: QCSCRATCH=/var/scratch/qchem3231208/ 
 calling putenv with: BRIANQC_ENABLE=0 
 Spawning Job For Fragment 2
 Done Job For Fragment 2
 calling putenv with: QCSCRATCH=/var/scratch 
 calling putenv with: QCTHREADS=12 
 Creating input file /var/scratch/qchem3231208/Frg4.input
 using default PutDataFrgm: nothing
 calling putenv with: QCSCRATCH=/var/scratch/qchem3231208/ 
 calling putenv with: BRIANQC_ENABLE=0 
 Spawning Job For Fragment 3
 Done Job For Fragment 3
 calling putenv with: QCSCRATCH=/var/scratch 
 calling putenv with: QCTHREADS=12 
 Creating input file /var/scratch/qchem3231208/Frg5.input
 using default PutDataFrgm: nothing
 calling putenv with: QCSCRATCH=/var/scratch/qchem3231208/ 
 calling putenv with: BRIANQC_ENABLE=0 
 Spawning Job For Fragment 4
 Done Job For Fragment 4
 calling putenv with: QCSCRATCH=/var/scratch 
 calling putenv with: QCTHREADS=12 
 Time for running child jobs:  CPU 0.02 s  wall 371.35 s
 ============= Method Specific SAD Guess Constructed =============
 Guess from on-the-fly superposition of atomic densities
 Warning: Energy on first SCF cycle will be non-variational

 -----------------------------------------------------------------------
  General SCF calculation program by
  Eric Jon Sundstrom, Paul Horn, Yuezhi Mao, Dmitri Zuev, Alec White,
  David Stuck, Shaama M.S., Shane Yost, Joonho Lee, David Small,
  Daniel Levine, Susi Lehtola, Hugh Burton, Evgeny Epifanovsky,
  Bang C. Huynh
 -----------------------------------------------------------------------
 Exchange:     0.1000 Hartree-Fock + 0.9000 TPSS
 Correlation:  1.0000 TPSS
 Using SG-2 standard quadrature grid
 Dispersion:   Grimme D3
 using 12 threads for integral computing
 -------------------------------------------------------
 OpenMP Integral computing Module                
 Release: version 1.0, May 2013, Q-Chem Inc. Pittsburgh 
 -------------------------------------------------------
 C-PCM solvent model [f = (eps-1)/eps], solve by matrix inversion
 A unrestricted SCF calculation will be
 performed using DIIS
 SCF converges when DIIS error is below 1.0e-08
 ---------------------------------------
  Cycle       Energy         DIIS error
 ---------------------------------------
    1   -3330.9057020984      1.57e-02  
    2   -3317.0257980105      2.04e-03  
    3   -3315.0215938134      3.72e-03  
    4   -3317.5317740378      1.62e-03  
    5   -3317.8881736430      8.44e-04  
    6   -3318.0098454404      2.71e-04  
    7   -3318.0224184421      1.44e-04  
    8   -3318.0267714613      5.13e-05  
    9   -3318.0273554900      2.61e-05  
   10   -3318.0275022639      1.33e-05  
   11   -3318.0275471891      5.84e-06  
   12   -3318.0275582139      2.23e-06  
   13   -3318.0275599420      1.47e-06  
   14   -3318.0275605917      6.71e-07  
   15   -3318.0275607157      3.69e-07  
   16   -3318.0275607602      1.50e-07  
   17   -3318.0275607675      9.63e-08  
   18   -3318.0275607699      4.60e-08  
   19   -3318.0275607704      2.03e-08  
   20   -3318.0275607706      1.33e-08  
   21   -3318.0275607706      4.33e-09  Convergence criterion met
 ---------------------------------------
 SCF time:   CPU 43667.18s  wall 21911.00s 
<S^2> =          8.757176768

************** Final PCM Free Energy Summary **************
 G_electrostatic  =      -0.52542841 hartree =    -329.71130273 kcal/mol
 G_cavitation     =       0.00000000 hartree =       0.00000000 kcal/mol
 G_dispersion     =       0.00000000 hartree =       0.00000000 kcal/mol
 G_repulsion      =       0.00000000 hartree =       0.00000000 kcal/mol
 --------------------------------------------------
 Non-electrostatic Free Energy =       0.00000000 hartree =       0.00000000 kcal/mol
 Total                         =      -0.52542841 hartree =    -329.71130273 kcal/mol
 --------------------------------------------------
 SCF Energy (H0 + V/2)                       =   -3318.02756077 
 Solute Internal Energy (H0)                 =   -3317.50213236 
 Total Free Energy (H0 + V/2 + non-elec)     =   -3318.02756077 hartree
                                             = -2082093.71942258 kcal/mol
***********************************************************

 SCF   energy in the final basis set =    -3318.0275607706
 Total energy in the final basis set =    -3318.0275607706
 
 --------------------------------------------------------------
 
                    Orbital Energies (a.u.)
 --------------------------------------------------------------
 
 Alpha MOs
 -- Occupied --
******** -29.9524 -25.7835 -25.7808 -25.7790 -19.0483 -19.0450 -19.0438
-19.0430 -19.0221 -19.0105 -19.0073 -19.0051 -19.0008 -18.9871 -18.9822
-18.9803 -18.9753 -14.3302 -14.3273 -14.2556 -14.2533 -10.2108 -10.2068
-10.1973 -10.1945 -10.1934 -10.1813 -10.1768 -10.1567 -10.1560 -10.1540
-10.1335 -10.1319 -10.1278 -10.1204 -10.1148 -10.1100 -10.1095 -10.1052
-10.1045 -10.1028 -10.1000 -10.0974  -3.5345  -2.3117  -2.3061  -2.3026
 -1.0493  -1.0435  -1.0013  -0.9852  -0.9817  -0.9771  -0.9744  -0.9726
 -0.9702  -0.9284  -0.9099  -0.8916  -0.8873  -0.8716  -0.8671  -0.8257
 -0.8220  -0.7643  -0.7625  -0.7381  -0.7263  -0.7175  -0.7001  -0.6942
 -0.6823  -0.6593  -0.6481  -0.6119  -0.6012  -0.5791  -0.5604  -0.5558
 -0.5254  -0.5227  -0.5194  -0.5089  -0.4963  -0.4898  -0.4827  -0.4768
 -0.4728  -0.4706  -0.4655  -0.4523  -0.4491  -0.4438  -0.4381  -0.4360
 -0.4318  -0.4269  -0.4186  -0.4159  -0.4137  -0.4082  -0.4044  -0.4033
 -0.3994  -0.3949  -0.3916  -0.3878  -0.3847  -0.3813  -0.3777  -0.3760
 -0.3744  -0.3719  -0.3684  -0.3642  -0.3616  -0.3587  -0.3570  -0.3540
 -0.3508  -0.3485  -0.3479  -0.3446  -0.3420  -0.3402  -0.3380  -0.3336
 -0.3321  -0.3288  -0.3278  -0.3259  -0.3226  -0.3140  -0.3070  -0.3022
 -0.3002  -0.2999  -0.2964  -0.2956  -0.2894  -0.2865  -0.2833  -0.2740
 -0.2582  -0.2569  -0.2448  -0.2316  -0.2221  -0.2217  -0.2190  -0.2128
 -0.2083  -0.2063  -0.2027  -0.1999  -0.1975  -0.1947  -0.1938  -0.1869
 -0.1836  -0.1824  -0.1789  -0.1697
 -- Virtual --
  0.0126   0.0158   0.0224   0.0268   0.0399   0.0546   0.0584   0.0650
  0.0655   0.0679   0.0780   0.0878   0.0922   0.0974   0.1016   0.1093
  0.1114   0.1147   0.1161   0.1199   0.1234   0.1252   0.1313   0.1381
  0.1389   0.1417   0.1460   0.1517   0.1569   0.1616   0.1640   0.1648
  0.1670   0.1706   0.1722   0.1787   0.1821   0.1872   0.1911   0.1939
  0.1966   0.1999   0.2044   0.2056   0.2076   0.2159   0.2211   0.2264
  0.2286   0.2346   0.2424   0.2443   0.2491   0.2543   0.2544   0.2606
  0.2639   0.2650   0.2659   0.2703   0.2758   0.2881   0.2888   0.2891
  0.2937   0.3018   0.3140   0.3179   0.3211   0.3289   0.3353   0.3503
  0.3545   0.3689   0.3698   0.3762   0.3818   0.3837   0.3942   0.4037
  0.4054   0.4134   0.4185   0.4273   0.4309   0.4327   0.4430   0.4448
  0.4462   0.4521   0.4628   0.4655   0.4722   0.4779   0.4823   0.4853
  0.4914   0.4926   0.4955   0.5052   0.5101   0.5160   0.5238   0.5286
  0.5317   0.5377   0.5417   0.5456   0.5484   0.5526   0.5573   0.5609
  0.5621   0.5636   0.5724   0.5767   0.5805   0.5870   0.5893   0.5961
  0.5974   0.6024   0.6070   0.6090   0.6108   0.6161   0.6192   0.6208
  0.6244   0.6258   0.6326   0.6374   0.6400   0.6417   0.6433   0.6457
  0.6468   0.6558   0.6596   0.6605   0.6615   0.6647   0.6682   0.6699
  0.6718   0.6756   0.6803   0.6820   0.6831   0.6871   0.6916   0.6950
  0.6957   0.7021   0.7037   0.7074   0.7115   0.7144   0.7218   0.7228
  0.7281   0.7296   0.7339   0.7366   0.7418   0.7465   0.7476   0.7610
  0.7640   0.7709   0.7726   0.7759   0.7808   0.7836   0.7920   0.7946
  0.8020   0.8075   0.8127   0.8136   0.8153   0.8238   0.8307   0.8403
  0.8508   0.8554   0.8627   0.8780   0.8783   0.8883   0.8911   0.8984
  0.9041   0.9096   0.9177   0.9224   0.9243   0.9321   0.9475   0.9501
  0.9601   0.9683   0.9760   0.9848   0.9933   0.9987   1.0104   1.0217
  1.0266   1.0329   1.0359   1.0490   1.0500   1.0615   1.0646   1.0681
  1.0728   1.0806   1.0869   1.0904   1.0968   1.0975   1.1039   1.1097
  1.1198   1.1250   1.1291   1.1377   1.1406   1.1446   1.1518   1.1548
  1.1600   1.1629   1.1693   1.1754   1.1768   1.1841   1.1855   1.1895
  1.1967   1.2007   1.2075   1.2136   1.2220   1.2268   1.2315   1.2343
  1.2364   1.2459   1.2510   1.2560   1.2613   1.2631   1.2725   1.2748
  1.2840   1.2908   1.2949   1.2971   1.3045   1.3079   1.3115   1.3220
  1.3243   1.3352   1.3398   1.3429   1.3491   1.3581   1.3621   1.3696
  1.3749   1.3848   1.3921   1.3969   1.3994   1.4096   1.4126   1.4164
  1.4231   1.4275   1.4363   1.4418   1.4475   1.4498   1.4550   1.4674
  1.4722   1.4813   1.4894   1.4982   1.5061   1.5156   1.5221   1.5242
  1.5333   1.5386   1.5448   1.5505   1.5594   1.5650   1.5677   1.5767
  1.5783   1.5869   1.5912   1.5945   1.5951   1.6069   1.6142   1.6190
  1.6229   1.6291   1.6329   1.6379   1.6386   1.6418   1.6432   1.6439
  1.6553   1.6566   1.6625   1.6652   1.6701   1.6815   1.6826   1.6852
  1.6890   1.6930   1.6954   1.7041   1.7068   1.7096   1.7102   1.7138
  1.7187   1.7247   1.7290   1.7331   1.7371   1.7394   1.7403   1.7504
  1.7516   1.7555   1.7581   1.7657   1.7675   1.7700   1.7719   1.7753
  1.7813   1.7871   1.7940   1.7986   1.8006   1.8061   1.8135   1.8168
  1.8192   1.8229   1.8266   1.8295   1.8335   1.8392   1.8425   1.8432
  1.8496   1.8538   1.8574   1.8638   1.8678   1.8775   1.8801   1.8866
  1.8906   1.9002   1.9015   1.9056   1.9104   1.9146   1.9194   1.9246
  1.9358   1.9462   1.9494   1.9577   1.9622   1.9643   1.9714   1.9811
  1.9896   1.9930   1.9999   2.0013   2.0033   2.0148   2.0215   2.0258
  2.0335   2.0443   2.0501   2.0574   2.0609   2.0686   2.0706   2.0764
  2.0860   2.0916   2.0973   2.1080   2.1135   2.1221   2.1266   2.1324
  2.1432   2.1468   2.1532   2.1585   2.1697   2.1723   2.1787   2.1844
  2.1893   2.1966   2.2023   2.2053   2.2098   2.2232   2.2282   2.2288
  2.2328   2.2380   2.2471   2.2574   2.2633   2.2767   2.2813   2.2832
  2.2910   2.2994   2.3010   2.3074   2.3148   2.3183   2.3236   2.3395
  2.3449   2.3455   2.3519   2.3561   2.3581   2.3714   2.3763   2.3859
  2.3962   2.4086   2.4159   2.4185   2.4275   2.4377   2.4546   2.4606
  2.4626   2.4807   2.4898   2.4922   2.4982   2.5076   2.5155   2.5219
  2.5246   2.5304   2.5360   2.5391   2.5407   2.5584   2.5623   2.5830
  2.5871   2.5940   2.5959   2.6078   2.6154   2.6198   2.6283   2.6344
  2.6534   2.6614   2.6743   2.6755   2.6825   2.6859   2.6898   2.6994
  2.7009   2.7061   2.7108   2.7157   2.7188   2.7207   2.7281   2.7337
  2.7362   2.7444   2.7534   2.7587   2.7627   2.7640   2.7777   2.7789
  2.7838   2.7886   2.7922   2.7948   2.7990   2.8088   2.8154   2.8335
  2.8406   2.8627   2.8934   2.9136   2.9263   2.9293   2.9386   2.9441
  2.9653   2.9690   2.9844   3.0094   3.0116   3.0146   3.0506   3.0662
  3.0815   3.0941   3.1039   3.1188   3.1268   3.1270   3.1492   3.1533
  3.1777   3.2010   3.2144   3.2161   3.2333   3.2348   3.2427   3.2441
  3.4005   3.4071   3.4088   3.4168   3.4191   3.4238   3.4429   3.4466
  3.4481   3.4756   3.4862   3.4985   3.5178   3.5235   3.5300   3.5425
  3.5525   3.5844   3.5910   3.6045   3.6263   3.7378   3.7666
 
 Beta MOs
 -- Occupied --
******** -29.8713 -25.7143 -25.7130 -25.7118 -19.0428 -19.0423 -19.0401
-19.0389 -19.0188 -19.0105 -19.0073 -19.0002 -18.9980 -18.9871 -18.9822
-18.9803 -18.9753 -14.3298 -14.3272 -14.2556 -14.2533 -10.2108 -10.2068
-10.1973 -10.1945 -10.1933 -10.1813 -10.1768 -10.1566 -10.1559 -10.1540
-10.1335 -10.1319 -10.1277 -10.1203 -10.1148 -10.1100 -10.1093 -10.1052
-10.1044 -10.1028 -10.1000 -10.0973  -3.3319  -2.0992  -2.0978  -2.0957
 -1.0445  -1.0392  -0.9980  -0.9852  -0.9816  -0.9744  -0.9715  -0.9702
 -0.9671  -0.9193  -0.9029  -0.8916  -0.8873  -0.8716  -0.8671  -0.8211
 -0.8177  -0.7639  -0.7620  -0.7361  -0.7259  -0.7164  -0.6992  -0.6932
 -0.6816  -0.6588  -0.6478  -0.6113  -0.6008  -0.5777  -0.5598  -0.5550
 -0.5249  -0.5203  -0.5175  -0.5051  -0.4944  -0.4874  -0.4795  -0.4726
 -0.4682  -0.4652  -0.4626  -0.4468  -0.4463  -0.4417  -0.4369  -0.4342
 -0.4311  -0.4237  -0.4181  -0.4146  -0.4117  -0.4076  -0.4022  -0.4005
 -0.3955  -0.3920  -0.3861  -0.3839  -0.3813  -0.3787  -0.3745  -0.3728
 -0.3714  -0.3672  -0.3659  -0.3604  -0.3586  -0.3554  -0.3540  -0.3504
 -0.3467  -0.3441  -0.3424  -0.3383  -0.3347  -0.3337  -0.3279  -0.3256
 -0.3150  -0.3142  -0.3044  -0.3023  -0.2998  -0.2990  -0.2951  -0.2906
 -0.2864  -0.2831  -0.2730  -0.2681  -0.2594  -0.2556  -0.2496  -0.2425
 -0.2335  -0.2220  -0.2197  -0.2168  -0.2088  -0.2083  -0.2053  -0.2028
 -0.1976  -0.1942  -0.1941  -0.1868  -0.1841  -0.1826  -0.1723
 -- Virtual --
 -0.0768  -0.0693  -0.0641  -0.0292  -0.0216   0.0164   0.0204   0.0227
  0.0275   0.0415   0.0559   0.0589   0.0654   0.0664   0.0683   0.0788
  0.0890   0.0925   0.0984   0.1023   0.1108   0.1125   0.1154   0.1167
  0.1205   0.1237   0.1257   0.1317   0.1385   0.1395   0.1420   0.1470
  0.1527   0.1574   0.1622   0.1649   0.1658   0.1678   0.1718   0.1734
  0.1800   0.1831   0.1881   0.1920   0.1944   0.1976   0.2006   0.2056
  0.2079   0.2098   0.2166   0.2267   0.2274   0.2304   0.2385   0.2433
  0.2459   0.2510   0.2554   0.2583   0.2640   0.2654   0.2676   0.2698
  0.2725   0.2777   0.2889   0.2899   0.2928   0.2973   0.3039   0.3178
  0.3267   0.3279   0.3371   0.3392   0.3569   0.3603   0.3722   0.3729
  0.3788   0.3856   0.3868   0.3970   0.4072   0.4075   0.4160   0.4209
  0.4282   0.4314   0.4359   0.4439   0.4455   0.4469   0.4528   0.4644
  0.4671   0.4740   0.4807   0.4835   0.4864   0.4928   0.4933   0.4961
  0.5068   0.5116   0.5185   0.5250   0.5302   0.5325   0.5384   0.5423
  0.5474   0.5494   0.5537   0.5578   0.5615   0.5639   0.5647   0.5742
  0.5778   0.5820   0.5876   0.5905   0.5968   0.5979   0.6035   0.6080
  0.6104   0.6119   0.6171   0.6196   0.6216   0.6249   0.6271   0.6333
  0.6389   0.6407   0.6425   0.6447   0.6471   0.6479   0.6569   0.6601
  0.6609   0.6624   0.6654   0.6693   0.6706   0.6733   0.6766   0.6811
  0.6829   0.6839   0.6883   0.6932   0.6957   0.6963   0.7030   0.7043
  0.7091   0.7125   0.7159   0.7227   0.7237   0.7291   0.7313   0.7366
  0.7383   0.7441   0.7472   0.7497   0.7628   0.7668   0.7723   0.7769
  0.7810   0.7830   0.7868   0.7950   0.7992   0.8055   0.8098   0.8153
  0.8168   0.8227   0.8271   0.8384   0.8433   0.8562   0.8597   0.8644
  0.8823   0.8861   0.8896   0.8969   0.9051   0.9070   0.9151   0.9209
  0.9238   0.9286   0.9347   0.9508   0.9537   0.9640   0.9718   0.9770
  0.9901   0.9967   1.0023   1.0136   1.0262   1.0297   1.0352   1.0373
  1.0503   1.0533   1.0631   1.0684   1.0698   1.0761   1.0843   1.0896
  1.0931   1.0998   1.1009   1.1057   1.1118   1.1216   1.1281   1.1307
  1.1392   1.1420   1.1470   1.1541   1.1561   1.1623   1.1656   1.1713
  1.1778   1.1785   1.1858   1.1900   1.1908   1.1988   1.2039   1.2115
  1.2147   1.2239   1.2296   1.2327   1.2363   1.2392   1.2480   1.2599
  1.2607   1.2656   1.2691   1.2751   1.2779   1.2882   1.2930   1.2981
  1.3006   1.3073   1.3108   1.3178   1.3250   1.3285   1.3411   1.3474
  1.3497   1.3521   1.3660   1.3684   1.3741   1.3806   1.3865   1.3967
  1.4029   1.4051   1.4122   1.4147   1.4201   1.4351   1.4382   1.4442
  1.4449   1.4501   1.4614   1.4679   1.4710   1.4791   1.4855   1.4990
  1.5020   1.5131   1.5210   1.5292   1.5345   1.5450   1.5462   1.5527
  1.5559   1.5632   1.5681   1.5718   1.5795   1.5815   1.5932   1.5948
  1.5960   1.6057   1.6151   1.6211   1.6262   1.6281   1.6301   1.6364
  1.6391   1.6409   1.6434   1.6483   1.6526   1.6575   1.6642   1.6668
  1.6700   1.6723   1.6844   1.6849   1.6880   1.6924   1.6947   1.6983
  1.7053   1.7083   1.7107   1.7133   1.7192   1.7246   1.7267   1.7300
  1.7372   1.7390   1.7419   1.7426   1.7524   1.7539   1.7569   1.7594
  1.7685   1.7693   1.7718   1.7762   1.7785   1.7837   1.7892   1.7962
  1.8007   1.8050   1.8097   1.8157   1.8185   1.8202   1.8261   1.8295
  1.8326   1.8347   1.8410   1.8455   1.8465   1.8543   1.8551   1.8601
  1.8653   1.8716   1.8798   1.8854   1.8883   1.8949   1.9031   1.9069
  1.9090   1.9119   1.9186   1.9207   1.9255   1.9412   1.9497   1.9529
  1.9640   1.9655   1.9694   1.9727   1.9858   1.9920   1.9941   2.0022
  2.0056   2.0071   2.0179   2.0249   2.0329   2.0357   2.0484   2.0560
  2.0595   2.0633   2.0698   2.0724   2.0834   2.0894   2.0932   2.1023
  2.1098   2.1166   2.1236   2.1301   2.1348   2.1443   2.1482   2.1544
  2.1611   2.1710   2.1772   2.1807   2.1866   2.1906   2.1976   2.2035
  2.2069   2.2108   2.2241   2.2310   2.2343   2.2363   2.2410   2.2479
  2.2605   2.2652   2.2787   2.2823   2.2849   2.2959   2.3018   2.3042
  2.3108   2.3165   2.3194   2.3258   2.3427   2.3461   2.3501   2.3534
  2.3577   2.3591   2.3757   2.3779   2.3875   2.4011   2.4124   2.4175
  2.4224   2.4294   2.4394   2.4572   2.4622   2.4645   2.4825   2.4916
  2.4942   2.5013   2.5126   2.5173   2.5229   2.5268   2.5330   2.5399
  2.5408   2.5439   2.5601   2.5643   2.5858   2.5891   2.5961   2.5976
  2.6102   2.6187   2.6214   2.6304   2.6395   2.6601   2.6632   2.6757
  2.6789   2.6882   2.6924   2.6969   2.7058   2.7089   2.7149   2.7171
  2.7199   2.7219   2.7263   2.7321   2.7400   2.7469   2.7508   2.7572
  2.7653   2.7684   2.7712   2.7807   2.7838   2.7903   2.7937   2.7961
  2.8013   2.8048   2.8136   2.8251   2.8381   2.8443   2.8812   2.9130
  2.9254   2.9269   2.9346   2.9488   2.9513   2.9830   3.0094   3.0115
  3.0249   3.0366   3.0720   3.0861   3.0943   3.1014   3.1152   3.1211
  3.1247   3.1337   3.1502   3.1562   3.2067   3.2142   3.2165   3.2239
  3.2395   3.2426   3.2440   3.2966   3.3262   3.4089   3.4156   3.4207
  3.4239   3.4254   3.4443   3.4471   3.4676   3.4779   3.4857   3.4980
  3.5100   3.5278   3.5308   3.5493   3.5745   3.5846   3.5910   3.6189
  3.6342   3.7001   3.7463   3.7784
 --------------------------------------------------------------
 
          Ground-State Mulliken Net Atomic Charges

     Atom                 Charge (a.u.)    Spin (a.u.)
  --------------------------------------------------------
      1 N                    -0.059748       0.012949
      2 C                    -0.048180       0.000010
      3 H                     0.015019       0.000003
      4 N                    -0.136737      -0.000055
      5 H                     0.090842      -0.000010
      6 C                     0.134229      -0.000004
      7 O                    -0.464598       0.000012
      8 C                     0.172615       0.000085
      9 O                    -0.392107       0.000474
     10 C                     0.155013       0.003615
     11 C                    -0.019032       0.003144
     12 H                     0.081462       0.000247
     13 H                     0.080434       0.000211
     14 H                     0.060233       0.000322
     15 C                     0.096758       0.004748
     16 H                     0.012659       0.000127
     17 H                     0.022753       0.001544
     18 C                    -0.104403       0.006137
     19 C                     0.253203       0.006059
     20 C                     0.079244       0.007854
     21 H                     0.031329       0.001692
     22 H                     0.025850       0.000220
     23 C                     0.177881       0.000342
     24 O                    -0.390597       0.000247
     25 N                    -0.129359      -0.000204
     26 H                     0.110950      -0.000089
     27 C                     0.141614       0.000002
     28 O                    -0.449471       0.000044
     29 N                    -0.057665       0.009056
     30 C                     0.154457       0.007649
     31 C                    -0.033510       0.003282
     32 H                     0.056504       0.000209
     33 H                     0.081627       0.000461
     34 H                     0.064056       0.000645
     35 C                     0.114512       0.001783
     36 H                     0.046599       0.000320
     37 H                     0.054167       0.001021
     38 C                    -0.069193       0.000400
     39 H                     0.023804       0.000587
     40 H                     0.035873       0.000052
     41 C                    -0.082654      -0.000051
     42 H                     0.091363       0.001356
     43 H                     0.013967      -0.000028
     44 C                     0.014308       0.000142
     45 H                     0.007535      -0.000020
     46 H                     0.002986      -0.000012
     47 C                    -0.043013      -0.000007
     48 H                     0.015931       0.000009
     49 C                    -0.041812      -0.000007
     50 H                     0.031747       0.000026
     51 H                     0.032140       0.000050
     52 C                     0.106556       0.002100
     53 H                     0.052795       0.002080
     54 H                     0.048253       0.000935
     55 C                    -0.067255       0.001347
     56 H                     0.054395       0.000470
     57 H                     0.013210       0.000068
     58 C                     0.012795       0.000084
     59 H                     0.005647      -0.000008
     60 H                     0.001643       0.000132
     61 O                    -0.459971      -0.000001
     62 O                    -0.443543       0.000048
     63 O                    -0.493817       0.220682
     64 Fe                    0.560754       4.138762
     65 O                    -0.406296       0.089856
     66 O                    -0.440739       0.159200
     67 O                    -0.380247       0.071391
     68 O                    -0.442632       0.139031
     69 O                    -0.400832       0.021649
     70 O                    -0.382300       0.075525
  --------------------------------------------------------
  Sum of atomic charges =    -3.000000
  Sum of spin   charges =     5.000000

 -----------------------------------------------------------------
                    Cartesian Multipole Moments
 -----------------------------------------------------------------
    Charge (ESU x 10^10)
               -14.4096
    Dipole Moment (Debye)
         X      -0.2265      Y      22.8825      Z      -4.4412
       Tot      23.3106
    Quadrupole Moments (Debye-Ang)
        XX    -475.2321     XY     -36.7529     YY    -312.0822
        XZ      -9.9290     YZ     -42.9476     ZZ    -316.8397
    Octopole Moments (Debye-Ang^2)
       XXX    -409.3006    XXY     655.9581    XYY      89.6950
       YYY     325.8589    XXZ     217.1993    XYZ      98.5921
       YYZ      87.3743    XZZ     117.8213    YZZ      93.6349
       ZZZ    -125.4796
    Hexadecapole Moments (Debye-Ang^3)
      XXXX  -25144.5536   XXXY    -415.8089   XXYY   -4984.1504
      XYYY    -762.0035   YYYY   -7730.2754   XXXZ    -293.5285
      XXYZ    -962.3708   XYYZ    -351.8496   YYYZ    -474.5630
      XXZZ   -3948.0070   XYZZ    -293.4478   YYZZ   -2047.4566
      XZZZ      56.0411   YZZZ    -120.9535   ZZZZ   -4227.0255
 -----------------------------------------------------------------
 Calculating analytic gradient of the SCF energy
 Gradient of SCF Energy
            1           2           3           4           5           6
    1  -0.0198367  -0.0382608   0.0376258   0.0869694  -0.0558475  -0.0238491
    2   0.0687030  -0.0214248   0.0380164  -0.0224709   0.0496159  -0.0825271
    3   0.0133806   0.0457499  -0.0507644  -0.0042771   0.0636590  -0.1330449
            7           8           9          10          11          12
    1   0.1655382  -0.1042491   0.1033515   0.0291544  -0.0012694   0.0057700
    2   0.0198972   0.0322455  -0.0700768  -0.0165338  -0.0053327  -0.0178081
    3   0.0736454   0.0840108  -0.1386179   0.0085047  -0.0016668   0.0420504
           13          14          15          16          17          18
    1   0.0439480  -0.0262719   0.0017085  -0.0186165  -0.0043117  -0.0004016
    2   0.0099560  -0.0338956  -0.0420389   0.0485732   0.0380279  -0.0234903
    3  -0.0197542  -0.0307108  -0.0027250   0.0528777  -0.0652622   0.0028493
           19          20          21          22          23          24
    1  -0.0287657   0.0393567   0.0012419  -0.0392764  -0.0030317   0.0485673
    2   0.0238926   0.0077864   0.0464154  -0.0613482  -0.1169170   0.1585757
    3   0.1781639   0.0379460  -0.0579967  -0.0227685  -0.0592174   0.0679282
           25          26          27          28          29          30
    1  -0.0267991  -0.0318361   0.1370073  -0.1316052   0.0587197  -0.0248642
    2   0.0413310  -0.0716854   0.0295067   0.0452313   0.0122358  -0.0010613
    3   0.0638816  -0.0447521   0.0138857   0.0997692   0.0405721   0.0044544
           31          32          33          34          35          36
    1  -0.0039612  -0.0007209  -0.0237112  -0.0282705   0.0103782   0.0317673
    2  -0.0059802  -0.0259312   0.0513790  -0.0339016   0.0213862  -0.0113009
    3  -0.0037166  -0.0574618  -0.0014526   0.0360433  -0.0171995   0.0507642
           37          38          39          40          41          42
    1  -0.0390960   0.0261486  -0.0326783  -0.0331761  -0.0467582   0.0543284
    2  -0.0387923   0.0091761  -0.0004006   0.0101290  -0.0062782  -0.0094782
    3  -0.0039896   0.0014279   0.0453820  -0.0469034  -0.0025912  -0.0460750
           43          44          45          46          47          48
    1   0.0267316  -0.0104510   0.0461708  -0.0411089   0.0036171  -0.0096932
    2  -0.0004884  -0.0270112   0.0455691   0.0104840  -0.0583966   0.0714008
    3   0.0565785  -0.0376602   0.0146755   0.0420601  -0.0065921  -0.0060235
           49          50          51          52          53          54
    1  -0.0153788   0.0012508   0.0453994  -0.0034887   0.0225416  -0.0133230
    2   0.0119951  -0.0109115  -0.0083736   0.0118115  -0.0446470   0.0162739
    3   0.0135302  -0.0573571   0.0198841  -0.0202148   0.0039945   0.0542987
           55          56          57          58          59          60
    1   0.0283363  -0.0725265   0.0154340  -0.0287856   0.0016066   0.0598036
    2  -0.0078298   0.0058409   0.0153500   0.0100366  -0.0287339   0.0028401
    3  -0.0179065  -0.0116266   0.0597490   0.0188282  -0.0573299   0.0126342
           61          62          63          64          65          66
    1  -0.1292964  -0.0327520  -0.0038708  -0.0062645   0.0272111   0.0216563
    2   0.0786364  -0.0763350   0.0147802   0.0019076  -0.1028242  -0.0062386
    3   0.0812517  -0.1116587   0.0230831  -0.0146738   0.0103240   0.0211485
           67          68          69          70
    1  -0.0761034  -0.0184301   0.0087243   0.0588730
    2  -0.0076197  -0.0103780   0.0517138  -0.0022588
    3  -0.0495328   0.0227072  -0.2120896  -0.0680805
 Max gradient component =       2.121E-01
 RMS gradient           =       5.113E-02
 Computing fast CPCM-SWIG gradient
 Updating gradient with PCM contributions...
 -- total gradient after adding PCM contribution --
---------------------------------------------------
  Atom         X              Y              Z     
---------------------------------------------------
   1       0.000549       0.001382       0.000957
   2       0.001723       0.000272       0.000073
   3      -0.000021       0.000012      -0.000265
   4       0.001602      -0.000671       0.001025
   5      -0.001061       0.001574       0.002212
   6      -0.001166      -0.001847      -0.002983
   7       0.004968      -0.000201       0.001341
   8      -0.003683       0.001189       0.000916
   9       0.003056      -0.001964      -0.003487
  10       0.001937      -0.002831      -0.000279
  11       0.000566      -0.000361       0.000113
  12      -0.000089       0.000022       0.000277
  13       0.000059       0.000176      -0.000180
  14      -0.000249       0.000182      -0.000000
  15       0.000273       0.000409       0.000017
  16      -0.000337       0.000560       0.000666
  17      -0.000154      -0.000105      -0.000561
  18       0.000380       0.000102      -0.000909
  19      -0.001191       0.001602       0.004354
  20      -0.000580       0.000138      -0.000424
  21       0.000469       0.000446      -0.000305
  22      -0.000213      -0.000630      -0.000380
  23       0.001329      -0.003113      -0.002815
  24       0.001439       0.004429       0.002647
  25      -0.000602       0.000327       0.001380
  26      -0.001676      -0.001835      -0.001365
  27       0.004107       0.000954       0.000240
  28      -0.003418       0.001790       0.003655
  29       0.000576      -0.000157       0.002147
  30      -0.002948      -0.000300      -0.001113
  31      -0.000782       0.000044       0.000059
  32       0.000248      -0.000113      -0.000051
  33       0.000028       0.000344      -0.000055
  34       0.000014      -0.000353       0.000273
  35      -0.000982      -0.000120       0.002315
  36       0.000448      -0.000123      -0.000186
  37       0.000147      -0.000256      -0.000488
  38      -0.000282       0.000430       0.000830
  39       0.000319      -0.000084       0.000115
  40      -0.000582      -0.000081      -0.001680
  41       0.000240      -0.000098       0.000277
  42       0.000701      -0.000028      -0.000365
  43      -0.000064       0.000177       0.000181
  44       0.000128       0.000316       0.000508
  45       0.000361       0.000117      -0.000026
  46      -0.000576      -0.000068      -0.000049
  47      -0.000771       0.000608       0.000912
  48       0.000235       0.000334      -0.000248
  49       0.000583       0.000076      -0.000947
  50      -0.000102       0.000199      -0.000276
  51      -0.000105      -0.000177       0.000210
  52       0.000981       0.000709       0.002035
  53      -0.000203      -0.000766      -0.000386
  54      -0.000334      -0.000092      -0.000127
  55       0.000227       0.000129       0.001108
  56      -0.001492       0.000271      -0.000505
  57       0.000183      -0.000062       0.000157
  58       0.000287      -0.000335      -0.000362
  59      -0.000211      -0.000295      -0.000803
  60       0.000367       0.000251       0.000266
  61      -0.004871       0.001943       0.001438
  62      -0.000016      -0.003344      -0.004072
  63      -0.000893      -0.001798       0.001410
  64       0.000039      -0.000015       0.000258
  65       0.000211      -0.003611       0.002274
  66      -0.000724       0.000438      -0.000251
  67      -0.003742       0.001622      -0.001913
  68       0.001423       0.000384      -0.000584
  69       0.000078       0.001815      -0.005854
  70       0.003844       0.000062      -0.002347
---------------------------------------------------
 Number of fixed atoms: 0
 Gradient time:  CPU 23305.26 s  wall 11698.52 s

 *****************************************************
             Starting BFGS Algorithm
 *****************************************************
            LIBOPT3 RUN PARAMETERS

  Geometry Optimization Coordinates :
	Delocalized Natural Internal Coordinates

  Step Length Selection Method :
	Eigenvector Following Algorithm

  Convergence Criteria :
	Max Gradient Component    	3.00000000e-04
	Max Displacement Component	1.20000000e-03
	Absolute Energy Difference	1.00000000e-06

  Initial Hessian :
	Approximate Hessian - Simple Internal Coordinate Scaled

  Type of Verification :
	Verify with final updated Hessian
 *****************************************************

	OPTIMIZATION CYCLE:	1

 Scaling Magnitude of Eigenvalues
 	Minimum: -25.00000000	 Maximum: 25.00000000
 204 Hessian Eigenvalues to form next step
   0.10000000   0.10000000   0.10000000   0.10000000   0.10000000
   0.10000000   0.10000000   0.10000000   0.10000000   0.10000000
   0.10000000   0.10000009   0.10000017   0.10000046   0.10000069
   0.10000077   0.10000376   0.10000662   0.10000735   0.10001274
   0.10003211   0.10010552   0.10011125   0.10018407   0.10025218
   0.10035388   0.10036567   0.10277126   0.10374666   0.10429540
   0.10509827   0.10582156   0.10732688   0.10856212   0.11008964
   0.11082556   0.11254023   0.11285794   0.11425127   0.11470978
   0.11916725   0.11959905   0.12025404   0.12073095   0.12146050
   0.12182617   0.12231937   0.12390610   0.12499668   0.12552623
   0.12620465   0.12631446   0.12665892   0.12679539   0.12719356
   0.12752101   0.12915140   0.13065115   0.13296423   0.13336716
   0.13392427   0.13618044   0.13688012   0.13703050   0.13813000
   0.13912496   0.14224670   0.14225936   0.14237860   0.14449584
   0.14463072   0.14543134   0.14922275   0.15121101   0.15137350
   0.15168677   0.15188865   0.15266124   0.15294216   0.15312523
   0.15461119   0.15615323   0.15723651   0.15770978   0.15797102
   0.15853192   0.15898757   0.16882257   0.17546970   0.17611648
   0.17651126   0.17660692   0.17722176   0.17763772   0.17795889
   0.17875761   0.17958377   0.18026239   0.18122084   0.18176075
   0.18251188   0.18323938   0.18699672   0.19208028   0.19610899
   0.19653285   0.19749011   0.19835048   0.19845066   0.19871924
   0.19966494   0.19972179   0.19984822   0.19987335   0.19993509
   0.19999530   0.19999865   0.19999997   0.20000000   0.20000000
   0.20000000   0.20000000   0.20000000   0.20000000   0.20000000
   0.20000000   0.20000000   0.20000000   0.20000000   0.20000000
   0.38064267   0.40327508   0.42069780   0.42174361   0.43356749
   0.43833338   0.46437566   0.47055727   0.47893551   0.48124829
   0.48280709   0.48900282   0.49854943   0.49890798   0.49996858
   0.50000000   0.50000000   0.50000000   0.50000000   0.50000000
   0.50000000   0.50000000   0.50000000   0.50000000   0.50000000
   0.50000000   0.50000000   0.50000000   0.50000000   0.50000000
   0.50000000   0.50000000   0.50000000   0.50000000   0.50000000
   0.50000000   0.50000000   0.50000000   0.50000000   0.50000000
   0.50000000   0.50000000   0.50000000   0.50000000   0.50000000
   0.50000000   0.50000000   0.50000000   0.50000000   0.50000000
   0.50000000   0.50000000   0.50000000   0.50000000   0.50000000
   0.50000000   0.50000000   0.50000000   0.50000000   0.50000000
   0.50000000   0.50000000   0.50000000   0.50000000   0.50000000
   0.50000000   0.50000000   0.50000000   0.50000000   0.50000000
   0.50000000   0.50000000   0.50000000   0.50000000

 Minimum Search taking a RFO step
 Searching for Lambda that minimizes along all modes
	Value of Lambda   -0.00078505
	Norm  of Stepsize  0.04776063
	RMS   of Stepsize  0.00334391

	Performing Iterative Coordinate Back-Transformation

	  Starting from Previous Position

	  iter:	0	rms: 1.0814856352e-02	maxdev: 5.7961164992e-02
	  iter:	1	rms: 3.4566239610e-05	maxdev: 3.0267055993e-04
	  iter:	2	rms: 8.8851864146e-10	maxdev: 9.0266748764e-09	 Success!

	Finished Iterative Coordinate Back-Transformation
 Adding empirical dispersion correction 
 ----------------------------------------------------------------
 Doing -D3(BJ) with
 s6  =   1.00000e+00
 s8  =   2.23820e+00
 a1  =   4.52900e-01
 a2  =   4.65500e+00
 -D3 energy without 3body term =     -1.2292600918e-01 hartrees
 ----------------------------------------------------------------
             Standard Nuclear Orientation (Angstroms)
    I     Atom           X                Y                Z
 ----------------------------------------------------------------
    1      N      -2.4233190975     2.5624794578    -0.8356364999
    2      C      -4.3665178372    -2.3351130143    -0.1288703430
    3      H      -4.9155020148    -2.9123147815     0.6399936311
    4      N      -2.9469590880    -2.3390763134     0.2022432529
    5      H      -2.4083402657    -2.8758840273    -0.4828963263
    6      C      -4.5283609485    -3.1015793888    -1.4791618407
    7      O      -5.7000570784    -3.1539425078    -1.9432071537
    8      C      -2.4056312859    -1.9411812776     1.3740926416
    9      O      -3.0683955644    -1.3539090222     2.2541953067
   10      C      -2.0242160467     3.5617545931    -0.0461346041
   11      C      -2.8219747703     4.8369465285     0.0378787217
   12      H      -2.9665695330     5.2901824363    -0.9545046163
   13      H      -3.8151387965     4.6540841480     0.4771128330
   14      H      -2.2727578092     5.5386225385     0.6772730114
   15      C      -0.9408573856    -2.2983409548     1.5829198777
   16      H      -0.5763183557    -2.9882544166     0.8099522619
   17      H      -0.8884275365    -2.8079358000     2.5579518612
   18      C       0.0262445493    -1.0889021156     1.6207535494
   19      C      -0.3991679616    -0.0932886319     2.7381678096
   20      C       1.4587078550    -1.5680631964     2.0006629749
   21      H       1.4091986936    -2.2515077900     2.8622881755
   22      H       2.0423581825    -0.6849063181     2.2993571263
   23      C       2.1546883730    -2.2649192075     0.8442468358
   24      O       1.7173927785    -3.3048932150     0.3089420975
   25      N       3.2900764151    -1.6622136047     0.4312301948
   26      H       3.7141799362    -0.9065859942     0.9719735291
   27      C       5.5739618238    -1.5100329593    -0.4091769565
   28      O       6.4661441512    -1.8749029253    -1.2184479688
   29      N       2.3900239567     2.0783118429    -0.9335405432
   30      C       2.7165198689     2.1541678119     0.3557805255
   31      C       4.1479703067     2.3386465654     0.7731111876
   32      H       4.1574055516     2.7813355607     1.7778756133
   33      H       4.6644760962     1.3626139874     0.8070407166
   34      H       4.6996539103     2.9909638525     0.0814968375
   35      C       3.3128069371     1.9929334420    -2.0699893501
   36      H       2.6965141051     2.2100203833    -2.9528595666
   37      H       4.0668956855     2.7888586569    -1.9782481817
   38      C       3.9854048756     0.6203764113    -2.1658774316
   39      H       4.6701956313     0.6275428307    -3.0322740662
   40      H       4.6137818065     0.4919955554    -1.2728009836
   41      C       2.9909245829    -0.5406267310    -2.2671986530
   42      H       2.1906086715    -0.3835328120    -1.5267628496
   43      H       2.5038693325    -0.5223492210    -3.2586760023
   44      C       3.6022300786    -1.9278002897    -2.0343555049
   45      H       2.8201383801    -2.6829254379    -2.2160998922
   46      H       4.4247109232    -2.1280973030    -2.7409421511
   47      C       4.1692944647    -2.1554756754    -0.6126212118
   48      H       4.2988394307    -3.2453395100    -0.4880375019
   49      C      -4.6617170978     1.4794993773    -0.9627003707
   50      H      -4.7159496062     1.7047481433     0.1177758389
   51      H      -5.6625886012     1.6930036639    -1.3769787419
   52      C      -3.6671281935     2.4644419731    -1.5952864978
   53      H      -4.0992659265     3.4706857455    -1.6533943507
   54      H      -3.3998194796     2.1500283128    -2.6176131904
   55      C      -4.2994877058     0.0018499868    -1.1673336030
   56      H      -3.2140110270    -0.1050608808    -1.0404549187
   57      H      -4.5336716399    -0.2961781357    -2.2056109619
   58      C      -4.9964296068    -0.9329101279    -0.1803338759
   59      H      -4.9427105498    -0.4969651252     0.8299227086
   60      H      -6.0600839086    -1.0650260012    -0.4361366477
   61      O      -3.4729192088    -3.6028004208    -1.9756402770
   62      O       5.6910496703    -0.6827086520     0.5525113321
   63      O       0.0684310573    -0.4466463788     0.3794443097
   64      Fe     -0.0805846965     1.4623794054     0.3744459497
   65      O      -0.6545388075     1.1114477107     2.3192344085
   66      O      -1.6670572187     1.4290619176    -0.8246475357
   67      O      -0.9530401884     3.4091569904     0.6321855361
   68      O       1.0707617762     1.8892601704    -1.2316755630
   69      O      -0.4222833306    -0.4533170147     3.9286850050
   70      O       1.7848478111     2.0549000799     1.2295693722
 ----------------------------------------------------------------
 Nuclear Repulsion Energy =        6059.66223906 hartrees
 There are      164 alpha and      159 beta electrons
No default van der Waals radius is available for Z = 26
	Found R = 2.4400 A in the $van_der_waals section
 Discretize the solute cavity surface with Lebedev spheres
	Using 110 Lebedev grid points for each H atom
	Using 194 Lebedev grid points for other atoms
	Atomic van der Waals radii (Bondi set) will be scaled by 1.20
 Using smooth SwiG surface discretization
 Remove points where switching function is < 1.0e-08
 Keep 4110 surface tesserae and discard 6950 interior tesserae
 Molecular Surface Area = 527.043 Angst**2

 Applying Cartesian multipole field
    Component          Value
    ---------          -----
     (2,0,0)        1.00000E-12
     (0,2,0)        2.00000E-12
     (0,0,2)       -3.00000E-11
 Nucleus-field energy     =-5.2590746008e-08 hartrees
 Read the previous MOs as SCF guess

 -----------------------------------------------------------------------
  General SCF calculation program by
  Eric Jon Sundstrom, Paul Horn, Yuezhi Mao, Dmitri Zuev, Alec White,
  David Stuck, Shaama M.S., Shane Yost, Joonho Lee, David Small,
  Daniel Levine, Susi Lehtola, Hugh Burton, Evgeny Epifanovsky,
  Bang C. Huynh
 -----------------------------------------------------------------------
 Requested basis set is non-standard
 There are 339 shells and 739 basis functions
 Exchange:     0.1000 Hartree-Fock + 0.9000 TPSS
 Correlation:  1.0000 TPSS
 Using SG-2 standard quadrature grid
 Dispersion:   Grimme D3
 A cutoff of  1.0D-12 yielded  45115 shell pairs
 There are    196387 function pairs (    217911 Cartesian)
 Smallest overlap matrix eigenvalue = 2.94E-04
 A unrestricted SCF calculation will be
 performed using DIIS
 SCF converges when DIIS error is below 1.0e-08
 ---------------------------------------
  Cycle       Energy         DIIS error
 ---------------------------------------
    1   -3317.4648015316      2.35e-04  
    2   -3317.9606243049      3.70e-04  
    3   -3318.0132733893      1.59e-04  
    4   -3318.0207798123      9.83e-05  
    5   -3318.0243731157      7.21e-05  
    6   -3318.0261939047      5.64e-05  
    7   -3318.0275111817      2.51e-05  
    8   -3318.0278229305      8.74e-06  
    9   -3318.0278555466      3.64e-06  
   10   -3318.0278591484      1.41e-06  
   11   -3318.0278596096      4.42e-07  
   12   -3318.0278596627      2.73e-07  
   13   -3318.0278596825      1.16e-07  
   14   -3318.0278596862      4.65e-08  
   15   -3318.0278596867      2.16e-08  
   16   -3318.0278596869      1.05e-08  
   17   -3318.0278596872      4.79e-09  Convergence criterion met
 ---------------------------------------
 SCF time:   CPU 33094.78s  wall 16606.00s 
<S^2> =          8.757179509

************** Final PCM Free Energy Summary **************
 G_electrostatic  =      -0.52594448 hartree =    -330.03514190 kcal/mol
 G_cavitation     =       0.00000000 hartree =       0.00000000 kcal/mol
 G_dispersion     =       0.00000000 hartree =       0.00000000 kcal/mol
 G_repulsion      =       0.00000000 hartree =       0.00000000 kcal/mol
 --------------------------------------------------
 Non-electrostatic Free Energy =       0.00000000 hartree =       0.00000000 kcal/mol
 Total                         =      -0.52594448 hartree =    -330.03514190 kcal/mol
 --------------------------------------------------
 SCF Energy (H0 + V/2)                       =   -3318.02785969 
 Solute Internal Energy (H0)                 =   -3317.50191521 
 Total Free Energy (H0 + V/2 + non-elec)     =   -3318.02785969 hartree
                                             = -2082093.90699557 kcal/mol
***********************************************************

 SCF   energy in the final basis set =    -3318.0278596872
 Total energy in the final basis set =    -3318.0278596872
 
 --------------------------------------------------------------
 
                    Orbital Energies (a.u.)
 --------------------------------------------------------------
 
 Alpha MOs
 -- Occupied --
******** -29.9524 -25.7834 -25.7808 -25.7789 -19.0483 -19.0452 -19.0438
-19.0434 -19.0229 -19.0109 -19.0075 -19.0053 -19.0016 -18.9885 -18.9837
-18.9815 -18.9767 -14.3305 -14.3277 -14.2560 -14.2534 -10.2113 -10.2075
-10.1982 -10.1952 -10.1947 -10.1827 -10.1783 -10.1569 -10.1568 -10.1544
-10.1342 -10.1323 -10.1282 -10.1208 -10.1150 -10.1104 -10.1103 -10.1055
-10.1051 -10.1031 -10.1005 -10.0977  -3.5344  -2.3117  -2.3060  -2.3025
 -1.0483  -1.0423  -0.9990  -0.9829  -0.9792  -0.9759  -0.9720  -0.9715
 -0.9679  -0.9274  -0.9087  -0.8906  -0.8867  -0.8705  -0.8658  -0.8252
 -0.8215  -0.7641  -0.7622  -0.7384  -0.7262  -0.7176  -0.7002  -0.6941
 -0.6821  -0.6591  -0.6479  -0.6118  -0.6011  -0.5794  -0.5603  -0.5557
 -0.5251  -0.5226  -0.5192  -0.5089  -0.4961  -0.4897  -0.4826  -0.4764
 -0.4728  -0.4702  -0.4654  -0.4521  -0.4486  -0.4435  -0.4379  -0.4357
 -0.4320  -0.4268  -0.4183  -0.4160  -0.4135  -0.4081  -0.4042  -0.4032
 -0.3993  -0.3947  -0.3915  -0.3875  -0.3847  -0.3812  -0.3775  -0.3758
 -0.3741  -0.3716  -0.3681  -0.3638  -0.3611  -0.3583  -0.3568  -0.3539
 -0.3507  -0.3482  -0.3474  -0.3444  -0.3417  -0.3397  -0.3375  -0.3332
 -0.3319  -0.3284  -0.3273  -0.3257  -0.3223  -0.3135  -0.3069  -0.3023
 -0.3001  -0.2998  -0.2963  -0.2953  -0.2892  -0.2862  -0.2830  -0.2741
 -0.2583  -0.2567  -0.2450  -0.2315  -0.2221  -0.2217  -0.2190  -0.2129
 -0.2085  -0.2064  -0.2029  -0.2000  -0.1981  -0.1950  -0.1942  -0.1874
 -0.1842  -0.1825  -0.1789  -0.1698
 -- Virtual --
  0.0116   0.0146   0.0210   0.0252   0.0398   0.0526   0.0567   0.0637
  0.0653   0.0664   0.0775   0.0877   0.0921   0.0972   0.1014   0.1092
  0.1112   0.1145   0.1159   0.1196   0.1232   0.1250   0.1310   0.1379
  0.1386   0.1415   0.1457   0.1515   0.1565   0.1614   0.1636   0.1647
  0.1669   0.1703   0.1718   0.1783   0.1819   0.1869   0.1908   0.1937
  0.1964   0.1998   0.2040   0.2053   0.2070   0.2157   0.2208   0.2260
  0.2281   0.2342   0.2419   0.2435   0.2483   0.2534   0.2538   0.2595
  0.2631   0.2646   0.2651   0.2697   0.2749   0.2874   0.2877   0.2881
[...]
    3   0.0127297   0.0448178  -0.0498332  -0.0033739   0.0616100  -0.1306408
            7           8           9          10          11          12
    1   0.1589046  -0.1020039   0.1029101   0.0262852  -0.0012247   0.0067243
    2   0.0185078   0.0283864  -0.0640875  -0.0143741  -0.0053203  -0.0171465
    3   0.0767061   0.0826263  -0.1353282   0.0078989  -0.0016727   0.0420135
           13          14          15          16          17          18
    1   0.0434359  -0.0274445   0.0011313  -0.0191094  -0.0036626   0.0000761
    2   0.0091930  -0.0341320  -0.0421030   0.0480340   0.0376961  -0.0235971
    3  -0.0210894  -0.0294312  -0.0022399   0.0520425  -0.0649958   0.0032981
           19          20          21          22          23          24
    1  -0.0292002   0.0380504   0.0032505  -0.0395040  -0.0027490   0.0456247
    2   0.0223350   0.0070784   0.0473513  -0.0605200  -0.1127636   0.1534473
    3   0.1731676   0.0379134  -0.0567662  -0.0242848  -0.0567085   0.0661575
           25          26          27          28          29          30
    1  -0.0249466  -0.0315975   0.1319132  -0.1280564   0.0582080  -0.0215664
    2   0.0384240  -0.0682312   0.0310523   0.0392094   0.0134891   0.0001764
    3   0.0625770  -0.0436957   0.0112488   0.0978331   0.0375697   0.0050034
           31          32          33          34          35          36
    1  -0.0041546  -0.0013557  -0.0236150  -0.0277364   0.0101806   0.0329355
    2  -0.0062714  -0.0284131   0.0513805  -0.0322260   0.0211344  -0.0094103
    3  -0.0036486  -0.0561961  -0.0034078   0.0377478  -0.0193204   0.0508651
           37          38          39          40          41          42
    1  -0.0388457   0.0262894  -0.0336638  -0.0320852  -0.0465289   0.0542891
    2  -0.0392978   0.0089982   0.0005203   0.0087738  -0.0068078  -0.0094177
    3  -0.0021805   0.0004039   0.0453847  -0.0465863  -0.0026641  -0.0458081
           43          44          45          46          47          48
    1   0.0262992  -0.0097057   0.0452979  -0.0410313   0.0050641  -0.0110454
    2   0.0007074  -0.0277550   0.0464289   0.0103762  -0.0583517   0.0707101
    3   0.0568197  -0.0370545   0.0141541   0.0416700  -0.0054221  -0.0071056
           49          50          51          52          53          54
    1  -0.0154073   0.0009655   0.0454928  -0.0037405   0.0224583  -0.0135324
    2   0.0116524  -0.0096262  -0.0087767   0.0118307  -0.0440862   0.0150943
    3   0.0146594  -0.0577047   0.0195095  -0.0213079   0.0029660   0.0546453
           55          56          57          58          59          60
    1   0.0273252  -0.0712188   0.0155204  -0.0290771   0.0023643   0.0593205
    2  -0.0074568   0.0060490   0.0139964   0.0088991  -0.0276654   0.0035261
    3  -0.0185132  -0.0112495   0.0597337   0.0184963  -0.0569332   0.0130922
           61          62          63          64          65          66
    1  -0.1256757  -0.0313280  -0.0052044  -0.0050066   0.0259263   0.0225632
    2   0.0763128  -0.0718985   0.0157361   0.0024523  -0.1000368  -0.0067547
    3   0.0760037  -0.1075746   0.0221365  -0.0140974   0.0084427   0.0210036
           67          68          69          70
    1  -0.0725879  -0.0187570   0.0110613   0.0547547
    2  -0.0077390  -0.0103147   0.0503982  -0.0047232
    3  -0.0474952   0.0237964  -0.2060408  -0.0663732
 Max gradient component =       2.060E-01
 RMS gradient           =       4.988E-02
 Computing fast CPCM-SWIG gradient
 Updating gradient with PCM contributions...
 -- total gradient after adding PCM contribution --
---------------------------------------------------
  Atom         X              Y              Z     
---------------------------------------------------
   1      -0.000004      -0.000025       0.000029
   2       0.000039       0.000022      -0.000031
   3      -0.000014      -0.000017      -0.000002
   4       0.000063      -0.000016       0.000057
   5      -0.000030      -0.000018      -0.000036
   6      -0.000043       0.000012       0.000064
   7       0.000006      -0.000020       0.000011
   8      -0.000028      -0.000002      -0.000012
   9      -0.000004       0.000016       0.000011
  10       0.000034      -0.000007      -0.000050
  11      -0.000006       0.000021      -0.000014
  12       0.000007      -0.000004      -0.000014
  13       0.000000      -0.000002      -0.000023
  14      -0.000006      -0.000005      -0.000010
  15       0.000027       0.000060      -0.000024
  16      -0.000003      -0.000005       0.000007
  17      -0.000002       0.000009       0.000020
  18       0.000007      -0.000108       0.000034
  19       0.000006       0.000055       0.000050
  20      -0.000016       0.000016      -0.000045
  21      -0.000023       0.000029       0.000030
  22       0.000008       0.000014      -0.000031
  23       0.000014      -0.000018       0.000036
  24      -0.000010      -0.000003      -0.000004
  25      -0.000069       0.000030       0.000040
  26       0.000061      -0.000002      -0.000004
  27      -0.000006      -0.000053      -0.000015
  28      -0.000005       0.000016      -0.000001
  29       0.000014      -0.000028       0.000032
  30      -0.000042       0.000110      -0.000035
  31       0.000029       0.000008      -0.000005
  32      -0.000005      -0.000003      -0.000007
  33      -0.000005      -0.000004       0.000003
  34      -0.000002      -0.000009      -0.000009
  35       0.000023      -0.000068       0.000058
  36      -0.000004       0.000042      -0.000003
  37      -0.000005       0.000007      -0.000062
  38      -0.000053      -0.000017      -0.000052
  39       0.000032       0.000009       0.000030
  40       0.000014      -0.000015       0.000011
  41      -0.000014       0.000001      -0.000046
  42      -0.000014      -0.000002       0.000014
  43       0.000018      -0.000019       0.000008
  44       0.000017      -0.000010       0.000060
  45       0.000005      -0.000023      -0.000001
  46       0.000013      -0.000012       0.000018
  47      -0.000043       0.000072      -0.000053
  48       0.000022      -0.000014       0.000040
  49       0.000016      -0.000036       0.000032
  50      -0.000015       0.000010      -0.000016
  51       0.000005      -0.000002      -0.000030
  52      -0.000022      -0.000029       0.000073
  53       0.000001       0.000008      -0.000056
  54      -0.000020       0.000030      -0.000027
  55      -0.000027       0.000026       0.000059
  56       0.000012      -0.000005      -0.000022
  57       0.000027      -0.000030      -0.000008
  58       0.000028       0.000041      -0.000006
  59      -0.000034      -0.000025       0.000021
  60      -0.000004       0.000007      -0.000034
  61       0.000008       0.000000       0.000000
  62       0.000005      -0.000005       0.000027
  63       0.000036      -0.000065       0.000038
  64       0.000049       0.000027      -0.000142
  65      -0.000054      -0.000035       0.000019
  66       0.000055       0.000047      -0.000089
  67      -0.000018       0.000088       0.000056
  68      -0.000073      -0.000057       0.000067
  69       0.000000       0.000022      -0.000024
  70       0.000017      -0.000036      -0.000015
---------------------------------------------------
 Number of fixed atoms: 0
 Gradient time:  CPU 21236.45 s  wall 10646.23 s

     Step 20	:
        Energy is -3318.0281101267
                            Maximum         Tolerance       Converged?
         Gradient           7.25538912e-05	3.00000000e-04	true
         Displacement       3.89210068e-03	1.20000000e-03	false
         Energy change      9.89064574e-07	1.00000000e-06	true

	 Optimization Converged in 20 cycles

 *****************************************************
             End of BFGS Algorithm
 *****************************************************
		----------------------------------
		   Verification of Optimization
		----------------------------------

 Eigenvalues of Hessian in Optimization Verification
   0.00183132   0.00569203   0.01651658   0.04441050   0.05998717
   0.09982679   0.10000001   0.10000013   0.10000026   0.10000070
   0.10000084   0.10000139   0.10000336   0.10000466   0.10000676
   0.10000826   0.10001852   0.10002028   0.10002739   0.10005909
   0.10009797   0.10013832   0.10019787   0.10025155   0.10028546
   0.10052257   0.10086286   0.10142848   0.10193266   0.10210282
   0.10315666   0.10362347   0.10465293   0.10593238   0.10764211
   0.10886400   0.11044852   0.11162485   0.11310575   0.11473520
   0.11611619   0.11739189   0.11959059   0.12033132   0.12095769
   0.12183991   0.12200576   0.12307654   0.12349974   0.12501315
   0.12530912   0.12622405   0.12664912   0.12691355   0.12708966
   0.12797892   0.12888447   0.13091376   0.13153187   0.13294067
   0.13378434   0.13549480   0.13577476   0.13720226   0.13810153
   0.13835038   0.14116653   0.14176396   0.14224674   0.14272402
   0.14447356   0.14463510   0.14543200   0.14981415   0.15097488
   0.15164341   0.15181393   0.15245105   0.15261393   0.15307622
   0.15410740   0.15543003   0.15631086   0.15749612   0.15773630
   0.15810368   0.15895980   0.16670433   0.17492082   0.17576564
   0.17611557   0.17659463   0.17704487   0.17767350   0.17828468
   0.17927722   0.17992877   0.18125420   0.18152070   0.18263665
   0.18420797   0.18680432   0.18988013   0.19315430   0.19623278
   0.19655554   0.19742509   0.19784256   0.19841722   0.19880305
   0.19953904   0.19967814   0.19987922   0.19992794   0.19994401
   0.19995422   0.19998359   0.19998639   0.19999582   0.19999938
   0.20000009   0.20000483   0.20016212   0.20104511   0.20384952
   0.20664091   0.23403004   0.25721454   0.30230287   0.33406128
   0.34059869   0.37043435   0.39275642   0.40397676   0.41871737
   0.43172942   0.44111468   0.45027306   0.46304040   0.47272760
   0.47483842   0.47956396   0.48200569   0.48237777   0.48816326
   0.48980480   0.49524351   0.49893451   0.49922537   0.49988214
   0.49995891   0.49999256   0.50000000   0.50000000   0.50000000
   0.50000000   0.50000000   0.50000000   0.50000000   0.50000000
   0.50000000   0.50000000   0.50000000   0.50000000   0.50000000
   0.50000000   0.50000000   0.50000000   0.50000000   0.50000000
   0.50000000   0.50000000   0.50000000   0.50000000   0.50000000
   0.50000000   0.50000000   0.50000000   0.50000000   0.50000000
   0.50000000   0.50000000   0.50000000   0.50000000   0.50000000
   0.50000000   0.50000000   0.50000000   0.50000000   0.50000000
   0.50000026   0.50000087   0.50000288   0.50000420   0.50014447
   0.50015437   0.50251837   0.50851237   0.51074504   0.51838816
   0.53880587   0.55335914   0.56769777   0.86374142

 Found a minimum
		---------------------------------
		       End of Verification
		---------------------------------

 Final energy is -3318.028110126723

	******************************
	**  OPTIMIZATION CONVERGED  **
	******************************
 Adding empirical dispersion correction 
 ----------------------------------------------------------------
 Doing -D3(BJ) with
 s6  =   1.00000
 s8  =   2.23820
 a1  =   0.45290
 a2  =   4.65500
 -D3 energy without 3body term =     -0.1228679591 hartrees
 ----------------------------------------------------------------
             Standard Nuclear Orientation (Angstroms)
    I     Atom           X                Y                Z
 ----------------------------------------------------------------
    1      N      -2.4273710772     2.5699619134    -0.7969862642
    2      C      -4.3446465175    -2.3319146691    -0.1711803364
    3      H      -4.8869310700    -2.9287762361     0.5876340621
    4      N      -2.9255715609    -2.3180511622     0.1681812161
    5      H      -2.3833820227    -2.8535915604    -0.5172479663
    6      C      -4.4852456846    -3.0816309615    -1.5326516179
    7      O      -5.6446890971    -3.1204285082    -2.0226895876
    8      C      -2.4010403789    -1.9442069658     1.3550520355
    9      O      -3.0776321653    -1.3816321111     2.2386735134
   10      C      -2.0128737766     3.5665477818    -0.0126505058
   11      C      -2.7930832236     4.8522593687     0.0715322702
   12      H      -2.9591184600     5.2913547818    -0.9236633576
   13      H      -3.7753034968     4.6870922967     0.5415940511
   14      H      -2.2182249854     5.5567744803     0.6848144105
   15      C      -0.9387095224    -2.2992924030     1.5774723909
   16      H      -0.5658697723    -2.9908386748     0.8094222608
   17      H      -0.8977790081    -2.8058741121     2.5547579245
   18      C       0.0355654883    -1.0942213232     1.6308321742
   19      C      -0.3967840131    -0.1021776496     2.7459003124
   20      C       1.4584740258    -1.5923302432     2.0287038383
   21      H       1.3838847081    -2.2906553969     2.8762809406
   22      H       2.0463965368    -0.7204343501     2.3518090759
   23      C       2.1640487670    -2.2766147268     0.8720053889
   24      O       1.7371374861    -3.3169433465     0.3326951282
   25      N       3.2928551244    -1.6621320456     0.4605247561
   26      H       3.7249653234    -0.9146308832     1.0091125260
   27      C       5.5684145501    -1.4728609998    -0.3877014092
   28      O       6.4613666041    -1.8050290097    -1.2069300263
   29      N       2.3576166521     2.0704829023    -0.9673155494
   30      C       2.6993347124     2.1775121334     0.3151791007
   31      C       4.1341889422     2.3781835190     0.7124407111
   32      H       4.1515301126     2.8628721827     1.6977155288
   33      H       4.6491127646     1.4032529611     0.7836161024
   34      H       4.6793735351     3.0013934217    -0.0104478054
   35      C       3.2682931960     1.9576701095    -2.1135636108
   36      H       2.6360118899     2.1404781035    -2.9927934942
   37      H       4.0148450237     2.7638429990    -2.0545139037
   38      C       3.9537937714     0.5895080167    -2.1687650950
   39      H       4.6504158167     0.5817494571    -3.0254241509
   40      H       4.5691060556     0.4901090256    -1.2622758953
   41      C       2.9722976554    -0.5837873659    -2.2551283985
   42      H       2.1663219869    -0.4271047664    -1.5198878076
   43      H       2.4914433213    -0.5868746032    -3.2498995089
   44      C       3.6047423936    -1.9586535266    -2.0023343189
   45      H       2.8352834887    -2.7295236319    -2.1704512893
   46      H       4.4321320874    -2.1535510690    -2.7048725905
   47      C       4.1793824481    -2.1531642635    -0.5794170557
   48      H       4.3339697798    -3.2381759366    -0.4373148154
   49      C      -4.6639449817     1.4897800230    -0.9428192014
   50      H      -4.7094079892     1.6911922625     0.1426261759
   51      H      -5.6668967218     1.7132715739    -1.3466057506
   52      C      -3.6719362957     2.4875973228    -1.5598544436
   53      H      -4.1030091017     3.4956423142    -1.5924896734
   54      H      -3.4051969872     2.1950931062    -2.5887109838
   55      C      -4.3044998467     0.0163746924    -1.1820982301
   56      H      -3.2182550784    -0.0938058619    -1.0622833891
   57      H      -4.5472134530    -0.2612692662    -2.2238639502
   58      C      -4.9939286204    -0.9383200655    -0.2078652259
   59      H      -4.9472473761    -0.5152351048     0.8085408066
   60      H      -6.0548024032    -1.0819725748    -0.4696680957
   61      O      -3.4273737047    -3.5886040340    -2.0147174324
   62      O       5.6767233026    -0.6522180845     0.5795597574
   63      O       0.1071735262    -0.4447996705     0.3949719185
   64      Fe     -0.0809390406     1.4607101787     0.3848428332
   65      O      -0.6419890677     1.1047216822     2.3303115388
   66      O      -1.6831159093     1.4286697011    -0.7872194296
   67      O      -0.9419583738     3.4016741252     0.6623441720
   68      O       1.0351719179     1.8711391966    -1.2444880895
   69      O      -0.4349811928    -0.4650741310     3.9328395976
   70      O       1.7780884820     2.0962825620     1.2009920375
 ----------------------------------------------------------------
 Nuclear Repulsion Energy =        6063.64152276 hartrees
 There are      164 alpha and      159 beta electrons

Z-matrix Print:
$molecule
-3 6
Fe
O  1 1.914799
C  2 1.397937 1 117.512866
C  3 1.550566 2 111.272739 1 131.154913 0
H  4 1.098702 3 107.458089 2 59.450667 0
H  4 1.101539 3 107.670093 2 176.206571 0
C  4 1.521173 3 115.318197 2 -65.925630 0
O  7 1.247018 4 121.552599 3 -70.442423 0
N  7 1.350391 4 115.931231 3 111.842617 0
H  9 1.024981 7 121.797889 4 3.243075 0
C  9 1.459155 7 125.788987 4 167.056771 0
H  11 1.107301 9 108.785480 7 -54.021013 0
C  11 1.537862 9 114.050351 7 65.750152 0
H  13 1.101935 11 107.941182 9 -63.701781 0
H  13 1.102103 11 107.094827 9 -179.831891 0
C  13 1.528360 11 113.004936 9 57.174494 0
H  16 1.098373 13 108.295328 11 -43.520352 0
H  16 1.105112 13 110.175134 11 73.371769 0
C  16 1.535376 13 113.234546 11 -163.399217 0
H  19 1.104040 16 110.483399 13 -77.367504 0
H  19 1.104910 16 109.734510 13 39.841625 0
C  19 1.536377 16 114.173355 13 160.741645 0
H  22 1.096833 19 110.798023 16 165.031862 0
H  22 1.102386 19 111.022547 16 44.860683 0
N  22 1.462086 19 112.126703 16 -75.041267 0
C  25 1.334232 22 127.824612 19 -107.384088 0
O  26 1.276582 25 118.357698 22 174.098687 0
O  25 1.362556 22 114.930011 19 65.154914 0
C  26 1.506276 25 120.630593 22 -5.868606 0
H  29 1.096776 26 107.942037 25 -174.163346 0
H  29 1.100358 26 111.606274 25 -54.188792 0
H  29 1.101360 26 110.964335 25 66.494614 0
C  3 1.553851 2 110.614319 1 8.252552 0
O  33 1.241764 3 120.524814 2 -175.300810 0
O  33 1.299787 3 114.573461 2 1.809759 0
C  3 1.559193 2 109.102317 1 -107.911393 0
H  36 1.100115 3 108.026734 2 74.694723 0
H  36 1.100731 3 109.713997 2 -167.522682 0
C  36 1.517904 3 111.948196 2 -45.858424 0
O  39 1.247154 36 123.124526 3 -62.348636 0
N  39 1.349485 36 114.576335 3 117.129036 0
H  41 1.022950 39 121.503718 36 11.769897 0
C  41 1.452075 39 125.105338 36 176.783784 0
H  43 1.105143 41 108.984439 39 -44.015554 0
C  43 1.546848 41 112.921579 39 74.846123 0
H  45 1.102076 43 108.164090 41 -76.661801 0
H  45 1.102778 43 106.563455 41 167.850606 0
C  45 1.534323 43 114.668335 41 44.280048 0
H  48 1.102146 45 108.596882 43 -57.937262 0
H  48 1.104898 45 108.979099 43 -173.480971 0
C  48 1.532128 45 114.384815 43 63.766911 0
H  51 1.100096 48 109.606856 45 -46.937902 0
H  51 1.104177 48 110.796234 45 70.436552 0
C  51 1.531282 48 113.545180 45 -167.219360 0
H  54 1.098291 51 112.183627 48 -58.993783 0
H  54 1.100337 51 110.659800 48 -179.884162 0
N  54 1.468313 51 111.989664 48 58.507610 0
C  57 1.331548 54 126.791526 51 71.745360 0
O  58 1.280608 57 118.458073 54 -171.273569 0
O  57 1.365805 54 115.524154 51 -99.242107 0
C  58 1.502296 57 120.700008 54 8.258307 0
H  61 1.098176 58 108.136825 57 155.701277 0
H  61 1.099175 58 112.058490 57 35.060209 0
H  61 1.104854 58 110.139076 57 -85.377784 0
C  43 1.558518 41 107.964313 39 -159.597151 0
O  65 1.256517 43 115.962287 41 179.267013 0
O  65 1.273098 43 116.785842 41 -0.360287 0
C  11 1.560592 9 107.162482 7 -169.546880 0
O  68 1.259346 11 115.926555 9 -175.946700 0
O  68 1.268267 11 116.646716 9 4.515758 0
$end

 -----------------------------------------------------------------------
                  END OF GEOMETRY OPTIMIZER USING LIBOPT3               
 -----------------------------------------------------------------------
 Total job time:  586244.81s(wall), 1167919.51s(cpu) 
 Wed May 29 07:18:30 2024

        *************************************************************
        *                                                           *
        *  Thank you very much for using Q-Chem.  Have a nice day.  *
        *                                                           *
        *************************************************************


