
Running Job 1 of 1 C_FeABO_N_ccL_3sextet_SfS_b3lypD3bj_ccpVDZ_pcmH2O_opt_5.in
qchem C_FeABO_N_ccL_3sextet_SfS_b3lypD3bj_ccpVDZ_pcmH2O_opt_5.in_186601.0 /scratch/qchem_scratch/qchem186601/ 0
/opt/qchem/6.0.2/exe/qcprog.exe_s C_FeABO_N_ccL_3sextet_SfS_b3lypD3bj_ccpVDZ_pcmH2O_opt_5.in_186601.0 /scratch/qchem_scratch/qchem186601/
                  Welcome to Q-Chem
     A Quantum Leap Into The Future Of Chemistry


 Q-Chem 6.0, Q-Chem, Inc., Pleasanton, CA (2022)

 E. Epifanovsky,  A. T. B. Gilbert,  Xintian Feng,  Joonho Lee,  Yuezhi Mao,  
 N. Mardirossian,  P. Pokhilko,  A. White,  M. Wormit,  M. P. Coons,  
 A. L. Dempwolff,  Zhengting Gan,  D. Hait,  P. R. Horn,  L. D. Jacobson,  
 I. Kaliman,  J. Kussmann,  A. W. Lange,  Ka Un Lao,  D. S. Levine,  Jie Liu,  
 S. C. McKenzie,  A. F. Morrison,  K. Nanda,  F. Plasser,  D. R. Rehn,  
 M. L. Vidal,  Zhi-Qiang You,  Ying Zhu,  B. Alam,  B. Albrecht,  
 A. Aldossary,  E. Alguire,  J. H. Andersen,  V. Athavale,  D. Barton,  
 K. Begam,  A. Behn,  N. Bellonzi,  Y. A. Bernard,  E. J. Berquist,  
 H. Burton,  A. Carreras,  K. Carter-Fenk,  Romit Chakraborty,  
 Chandrima Chakravarty,  Junhan Chen,  A. D. Chien,  K. D. Closser,  
 V. Cofer-Shabica,  L. Cunha,  S. Dasgupta,  Jia Deng,  M. de Wergifosse,  
 M. Diedenhofen,  Hainam Do,  S. Ehlert,  Po-Tung Fang,  S. Fatehi,  
 Qingguo Feng,  T. Friedhoff,  B. Ganoe,  J. Gayvert,  Qinghui Ge,  
 G. Gidofalvi,  M. Goldey,  J. Gomes,  C. Gonzalez-Espinoza,  S. Gulania,  
 A. Gunina,  J. A. Gyamfi,  M. W. D. Hanson-Heine,  P. H. P. Harbach,  
 A. W. Hauser,  M. F. Herbst,  M. Hernandez Vera,  M. Hodecker,  
 Z. C. Holden,  S. Houck,  Xunkun Huang,  Kerwin Hui,  B. C. Huynh,  
 K. Ikeda,  M. Ivanov,  Hyunjun Ji,  Zuxin Jin,  Hanjie Jiang,  B. Kaduk,  
 S. Kaehler,  R. Kang,  K. Khistyaev,  Jaehoon Kim,  Yongbin Kim,  
 P. Klunzinger,  Z. Koczor-Benda,  Joong Hoon Koh,  D. Kosenkov,  
 Saikiran Kotaru,  L. Koulias,  T. Kowalczyk,  C. M. Krauter,  K. Kue,  
 A. Kunitsa,  T. Kus,  A. Landau,  K. V. Lawler,  D. Lefrancois,  S. Lehtola,  
 Rain Li,  Shaozhi Li,  Yi-Pei Li,  Jiashu Liang,  M. Liebenthal,  
 Hung-Hsuan Lin,  You-Sheng Lin,  Fenglai Liu,  Kuan-Yu Liu,  
 M. Loipersberger,  A. Luenser,  C. Malbon,  A. Manjanath,  P. Manohar,  
 E. Mansoor,  S. F. Manzer,  Shan-Ping Mao,  A. V. Marenich,  T. Markovich,  
 S. Mason,  F. Matz,  S. A. Maurer,  P. F. McLaughlin,  M. F. S. J. Menger,  
 J.-M. Mewes,  S. A. Mewes,  P. Morgante,  Mohammad Mostafanejad,  
 J. W. Mullinax,  K. J. Oosterbaan,  G. Paran,  V. Parravicini,  
 Alexander C. Paul,  Suranjan K. Paul,  F. Pavosevic,  Zheng Pei,  S. Prager,  
 E. I. Proynov,  E. Ramos,  B. Rana,  A. E. Rask,  A. Rettig,  R. M. Richard,  
 F. Rob,  E. Rossomme,  T. Scheele,  M. Scheurer,  M. Schneider,  
 P. E. Schneider,  N. Sergueev,  S. M. Sharada,  Hengyuan Shen,  
 W. Skomorowski,  D. W. Small,  C. J. Stein,  Yingli Su,  Yu-Chuan Su,  
 E. J. Sundstrom,  Zhen Tao,  J. Thirman,  Hung-Yi Tsai,  T. Tsuchimochi,  
 N. M. Tubman,  C. Utku,  S. P. Veccham,  O. Vydrov,  J. Wenzel,  
 Jonathan Wong,  J. Witte,  A. Yamada,  Chou-Hsun Yang,  Kun Yao,  
 S. Yeganeh,  S. R. Yost,  A. Zech,  F. Zeller,  Igor Ying Zhang,  
 Xing Zhang,  Yu Zhang,  D. Zuev,  A. Aspuru-Guzik,  A. T. Bell,  
 N. A. Besley,  K. B. Bravaya,  B. R. Brooks,  D. Casanova,  Jeng-Da Chai,  
 Hsing-Ta Chen,  S. Coriani,  C. J. Cramer,  A. E. DePrince, III,  
 R. A. DiStasio Jr.,  A. Dreuw,  B. D. Dunietz,  T. R. Furlani,  
 W. A. Goddard III,  S. Grimme,  S. Hammes-Schiffer,  T. Head-Gordon,  
 W. J. Hehre,  Chao-Ping Hsu,  T.-C. Jagau,  Yousung Jung,  A. Klamt,  
 Jing Kong,  D. S. Lambrecht,  Xiangyuan Li,  WanZhen Liang,  N. J. Mayhall,  
 C. W. McCurdy,  J. B. Neaton,  T. Neudecker,  C. Ochsenfeld,  
 J. A. Parkhill,  R. Peverati,  V. A. Rassolov,  Haisheng Ren,  Yihan Shao,  
 L. V. Slipchenko,  R. P. Steele,  J. E. Subotnik,  A. J. W. Thom,  
 A. Tkatchenko,  D. G. Truhlar,  T. Van Voorhis,  Fan Wang,  
 T. A. Wesolowski,  K. B. Whaley,  H. L. Woodcock III,  P. M. Zimmerman,  
 S. Faraji,  P. M. W. Gill,  M. Head-Gordon,  J. M. Herbert,  A. I. Krylov

 Contributors to earlier versions of Q-Chem not listed above: 
 R. D. Adamson,  B. Austin,  R. Baer,  J. Baker,  G. J. O. Beran,  
 K. Brandhorst,  S. T. Brown,  E. F. C. Byrd,  Arup K. Chakraborty,  
 G. K. L. Chan,  Chun-Min Chang,  Yunqing Chen,  C.-L. Cheng,  
 Siu Hung Chien,  D. M. Chipman,  D. L. Crittenden,  H. Dachsel,  
 R. J. Doerksen,  A. D. Dutoi,  R. G. Edgar,  J. Fosso-Tande,  
 L. Fusti-Molnar,  D. Ghosh,  A. Ghysels,  A. Golubeva-Zadorozhnaya,  
 J. Gonthier,  M. S. Gordon,  S. R. Gwaltney,  G. Hawkins,  J. E. Herr,  
 A. Heyden,  S. Hirata,  E. G. Hohenstein,  G. Kedziora,  F. J. Keil,  
 C. Kelley,  Jihan Kim,  R. A. King,  R. Z. Khaliullin,  P. P. Korambath,  
 W. Kurlancheek,  A. Laurent,  A. M. Lee,  M. S. Lee,  S. V. Levchenko,  
 Ching Yeh Lin,  D. Liotard,  E. Livshits,  R. C. Lochan,  I. Lotan,  
 L. A. Martinez-Martinez,  P. E. Maslen,  N. Nair,  D. P. O'Neill,  
 D. Neuhauser,  E. Neuscamman,  C. M. Oana,  R. Olivares-Amaya,  R. Olson,  
 T. M. Perrine,  B. Peters,  P. A. Pieniazek,  A. Prociuk,  Y. M. Rhee,  
 J. Ritchie,  M. A. Rohrdanz,  E. Rosta,  N. J. Russ,  H. F. Schaefer III,  
 M. W. Schmidt,  N. E. Schultz,  S. Sharma,  N. Shenvi,  C. D. Sherrill,  
 A. C. Simmonett,  A. Sodt,  T. Stein,  D. Stuck,  K. S. Thanthiriwatte,  
 V. Vanovschi,  L. Vogt,  Tao Wang,  A. Warshel,  M. A. Watson,  
 C. F. Williams,  Q. Wu,  X. Xu,  Jun Yang,  W. Zhang,  Yan Zhao

   Please cite Q-Chem as follows:
  "Software for the frontiers of quantum chemistry:
   An overview of developments in the Q-Chem 5 package"
   J. Chem. Phys. 155, 084801 (2021)
   https://doi.org/10.1063/5.0055522 (open access)

 Q-Chem 6.0.2 for Intel X86 EM64T Linux

 Parts of Q-Chem use Armadillo 9.900.5 (Nocturnal Misbehaviour).
 http://arma.sourceforge.net/

 Q-Chem begins on Sat Jan  6 10:43:06 2024  

 Host: 
0

     Scratch files written to /scratch/qchem_scratch/qchem186601//
 Dec722 |scratch|qcdevops|jenkins|workspace|build_RNUM 8907   
 Processing $rem in /opt/qchem/6.0.2/config/preferences:
 Processing $rem in /home/cooksy_group/.qchemrc:
 Symmetry turned off for PCM/SM12/SMD calculation

 Checking the input file for inconsistencies... 	...done.

--------------------------------------------------------------
User input:
--------------------------------------------------------------
$molecule
-3 6
C   -1.2706972    1.8235509   -1.7893561
C   -4.1299236   -1.9963163   -0.0127680
H   -4.7976137   -2.7496113    0.4389973
N   -2.8217934   -2.0729525    0.6147971
H   -2.0624070   -2.1558900   -0.0587735
C   -3.9549161   -2.3213043   -1.5268104
O   -5.0177230   -2.4846411   -2.1750750
C   -2.5591229   -2.0123331    1.9333772
O   -3.4387735   -1.8288545    2.7934128
N   -1.9753373    2.4669082   -0.8611834
C   -1.1054757   -2.2534461    2.3091128
H   -0.7196932   -3.1145856    1.7428038
H   -1.0845974   -2.4957257    3.3787795
C   -0.1342542   -1.0748980    2.0671930
C   -0.3492285    0.0735473    3.0974844
C    1.3199832   -1.5875032    2.3563229
H    1.3146627   -2.1676594    3.2896992
H    1.9700585   -0.7123574    2.4961564
C    1.9031471   -2.4674718    1.2552137
O    1.7426029   -3.7026888    1.2379532
N    2.6074057   -1.7792510    0.3419635
H    2.5931057   -0.7593760    0.4388266
C    4.9476381   -2.0074900   -0.5061074
O    5.7095367   -2.4026829   -1.4282896
C    2.3604473    3.0390736   -0.3072621
N    2.8876830    1.8189230   -0.2030657
C    4.0574567    1.2459364   -0.8704548
H    4.4674199    0.4987473   -0.1767717
H    4.8069905    2.0410085   -0.9865360
C    3.0778223    4.1077493   -1.0845764
H    2.6964066    5.0855502   -0.7637070
H    4.1662290    4.0740515   -0.9425050
C    3.7514936    0.6319602   -2.2498586
H    3.4970495    1.4657735   -2.9260983
H    4.6967615    0.2026567   -2.6262799
C    2.6154222   -0.4100711   -2.3385851
H    1.7939799   -0.1006571   -1.6791046
H    2.2058452   -0.3438112   -3.3617119
C    2.9396205   -1.8976621   -2.1116677
H    2.0166140   -2.4602935   -2.3389196
H    3.7079287   -2.2317300   -2.8264227
C    3.4293560   -2.3284350   -0.7153749
H    3.3371699   -3.4240973   -0.6537216
C   -4.2798920    1.8996582   -0.1989945
H   -4.1235875    2.0139334    0.8854768
H   -5.3283095    2.1737422   -0.4078929
C   -1.7345488    1.7012681   -3.2119142
H   -2.3956529    2.5140776   -3.5334111
H   -0.8462267    1.6748352   -3.8575254
C   -3.9865622    0.4592556   -0.6062750
H   -2.9198089    0.2633190   -0.4193181
H   -4.1443480    0.3424074   -1.6924269
C   -4.7829039   -0.6070979    0.1410247
H   -4.8337143   -0.3649743    1.2141676
H   -5.8154428   -0.6674020   -0.2395412
O   -2.7700014   -2.3467240   -1.9701848
O    5.2814667   -1.3989289    0.5469073
O   -0.2484784   -0.5596087    0.7759779
Fe    0.1790118    1.3217061    0.6181107
O   -0.1314931    1.2657854    2.6112492
O   -0.1762726    1.2671456   -1.4439581
O   -1.5101414    2.4022606    0.4202206
O    1.2368754    3.2614843    0.2418370
O   -0.6306756   -0.1561334    4.2760965
O    2.1376539    0.9188155    0.4982149
H   -2.2685109    0.7429851   -3.3259201
H    2.8697400    3.9883999   -2.1605298
C   -3.3723485    2.8866268   -0.9473544
H   -3.4447103    3.8971617   -0.5173390
H   -3.6493693    2.9439206   -2.0066552
$end

$rem
BASIS  =  gen
DFT_D  =  D3_BJ
GUI  =  2
JOB_TYPE  =  Optimization
METHOD  =  B3LYP
SCF_CONVERGENCE  =  8
SOLVENT_METHOD  =  PCM
$end

$pcm
THEORY  CPCM
$end

$solvent
DIELECTRIC  78.39
$end

$van_der_waals
26   2.44
$end

!----------------------------------------------------------------------
! Basis Set Exchange
! Basis set: cc-pVDZ
!----------------------------------------------------------------------

$rem
BASIS GEN
PURECART 11
$end

$basis
H     0
S   4   1.00
1.301000D+01           1.968500D-02
1.962000D+00           1.379770D-01
4.446000D-01           4.781480D-01
1.220000D-01           5.012400D-01
S   1   1.00
1.220000D-01           1.000000D+00
P   1   1.00
7.270000D-01           1.0000000
****
C     0
S   9   1.00
6.665000D+03           6.920000D-04
1.000000D+03           5.329000D-03
2.280000D+02           2.707700D-02
6.471000D+01           1.017180D-01
2.106000D+01           2.747400D-01
7.495000D+00           4.485640D-01
2.797000D+00           2.850740D-01
5.215000D-01           1.520400D-02
1.596000D-01          -3.191000D-03
S   9   1.00
6.665000D+03          -1.460000D-04
1.000000D+03          -1.154000D-03
2.280000D+02          -5.725000D-03
6.471000D+01          -2.331200D-02
2.106000D+01          -6.395500D-02
7.495000D+00          -1.499810D-01
2.797000D+00          -1.272620D-01
5.215000D-01           5.445290D-01
1.596000D-01           5.804960D-01
S   1   1.00
1.596000D-01           1.000000D+00
P   4   1.00
9.439000D+00           3.810900D-02
2.002000D+00           2.094800D-01
5.456000D-01           5.085570D-01
1.517000D-01           4.688420D-01
P   1   1.00
1.517000D-01           1.000000D+00
D   1   1.00
5.500000D-01           1.0000000
****
N     0
S   9   1.00
9.046000D+03           7.000000D-04
1.357000D+03           5.389000D-03
3.093000D+02           2.740600D-02
8.773000D+01           1.032070D-01
2.856000D+01           2.787230D-01
1.021000D+01           4.485400D-01
3.838000D+00           2.782380D-01
7.466000D-01           1.544000D-02
2.248000D-01          -2.864000D-03
S   9   1.00
9.046000D+03          -1.530000D-04
1.357000D+03          -1.208000D-03
3.093000D+02          -5.992000D-03
8.773000D+01          -2.454400D-02
2.856000D+01          -6.745900D-02
1.021000D+01          -1.580780D-01
3.838000D+00          -1.218310D-01
7.466000D-01           5.490030D-01
2.248000D-01           5.788150D-01
S   1   1.00
2.248000D-01           1.000000D+00
P   4   1.00
1.355000D+01           3.991900D-02
2.917000D+00           2.171690D-01
7.973000D-01           5.103190D-01
2.185000D-01           4.622140D-01
P   1   1.00
2.185000D-01           1.000000D+00
D   1   1.00
8.170000D-01           1.0000000
****
O     0
S   9   1.00
1.172000D+04           7.100000D-04
1.759000D+03           5.470000D-03
4.008000D+02           2.783700D-02
1.137000D+02           1.048000D-01
3.703000D+01           2.830620D-01
1.327000D+01           4.487190D-01
5.025000D+00           2.709520D-01
1.013000D+00           1.545800D-02
3.023000D-01          -2.585000D-03
S   9   1.00
1.172000D+04          -1.600000D-04
1.759000D+03          -1.263000D-03
4.008000D+02          -6.267000D-03
1.137000D+02          -2.571600D-02
3.703000D+01          -7.092400D-02
1.327000D+01          -1.654110D-01
5.025000D+00          -1.169550D-01
1.013000D+00           5.573680D-01
3.023000D-01           5.727590D-01
S   1   1.00
3.023000D-01           1.000000D+00
P   4   1.00
1.770000D+01           4.301800D-02
3.854000D+00           2.289130D-01
1.046000D+00           5.087280D-01
2.753000D-01           4.605310D-01
P   1   1.00
2.753000D-01           1.000000D+00
D   1   1.00
1.185000D+00           1.0000000
****
Fe     0
S   20   1.00
4.316265D+06           8.048803D-06
6.463424D+05           6.258306D-05
1.470897D+05           3.290239D-04
4.166152D+04           1.387355D-03
1.359077D+04           5.023256D-03
4.905750D+03           1.610140D-02
1.912746D+03           4.590034D-02
7.926043D+02           1.136154D-01
3.448065D+02           2.283869D-01
1.558999D+02           3.221159D-01
7.223091D+01           2.383661D-01
3.272506D+01           7.404667D-02
1.566762D+01           9.214197D-02
7.503483D+00           9.339790D-02
3.312223D+00           1.573965D-02
1.558471D+00          -4.186682D-04
6.839140D-01           5.376318D-05
1.467570D-01          -3.816654D-05
7.058300D-02           4.319603D-05
3.144900D-02          -3.401019D-06
S   20   1.00
4.316265D+06          -4.155954D-06
6.463424D+05          -3.231401D-05
1.470897D+05          -1.699525D-04
4.166152D+04          -7.171369D-04
1.359077D+04          -2.603625D-03
4.905750D+03          -8.399109D-03
1.912746D+03          -2.434109D-02
7.926043D+02          -6.251948D-02
3.448065D+02          -1.365929D-01
1.558999D+02          -2.312707D-01
7.223091D+01          -2.383734D-01
3.272506D+01           3.123837D-02
1.566762D+01           5.086818D-01
7.503483D+00           4.987695D-01
3.312223D+00           9.033552D-02
1.558471D+00          -6.005337D-03
6.839140D-01           2.312454D-04
1.467570D-01          -5.643680D-04
7.058300D-02           4.992260D-04
3.144900D-02          -1.015293D-04
S   20   1.00
4.316265D+06           9.532178D-07
6.463424D+05           7.414605D-06
1.470897D+05           3.898393D-05
4.166152D+04           1.647152D-04
1.359077D+04           5.985980D-04
4.905750D+03           1.942390D-03
1.912746D+03           5.687237D-03
7.926043D+02           1.501329D-02
3.448065D+02           3.452455D-02
1.558999D+02           6.495820D-02
7.223091D+01           7.716194D-02
3.272506D+01          -1.873411D-02
1.566762D+01          -3.009185D-01
7.503483D+00          -4.554661D-01
3.312223D+00           1.286463D-01
1.558471D+00           7.183316D-01
6.839140D-01           4.051743D-01
1.467570D-01           2.168227D-02
7.058300D-02          -8.343566D-03
3.144900D-02           3.658979D-03
S   20   1.00
4.316265D+06          -2.063008D-07
6.463424D+05          -1.604169D-06
1.470897D+05          -8.438437D-06
4.166152D+04          -3.563151D-05
1.359077D+04          -1.295998D-04
4.905750D+03          -4.201534D-04
1.912746D+03          -1.231954D-03
7.926043D+02          -3.248922D-03
3.448065D+02          -7.493717D-03
1.558999D+02          -1.410102D-02
7.223091D+01          -1.691600D-02
3.272506D+01           4.218996D-03
1.566762D+01           6.833810D-02
7.503483D+00           1.098201D-01
3.312223D+00          -4.009005D-02
1.558471D+00          -2.174739D-01
6.839140D-01          -2.465135D-01
1.467570D-01           2.731435D-01
7.058300D-02           5.748321D-01
3.144900D-02           3.012713D-01
S   20   1.00
4.316265D+06          -4.009367D-07
6.463424D+05          -3.189255D-06
1.470897D+05          -1.623079D-05
4.166152D+04          -7.157920D-05
1.359077D+04          -2.463958D-04
4.905750D+03          -8.544907D-04
1.912746D+03          -2.307593D-03
7.926043D+02          -6.728292D-03
3.448065D+02          -1.366165D-02
1.558999D+02          -3.062240D-02
7.223091D+01          -2.631137D-02
3.272506D+01          -9.760183D-03
1.566762D+01           1.801906D-01
7.503483D+00           1.529634D-01
3.312223D+00           5.505413D-02
1.558471D+00          -9.551364D-01
6.839140D-01           2.586813D-01
1.467570D-01           1.834049D+00
7.058300D-02          -9.333240D-01
3.144900D-02          -6.981605D-01
S   1   1.00
3.144900D-02           1.000000D+00
P   16   1.00
1.774569D+04           4.100000D-05
4.200721D+03           3.690000D-04
1.364429D+03           2.129000D-03
5.220806D+02           9.369000D-03
2.214595D+02           3.309700D-02
1.009096D+02           9.443100D-02
4.840115D+01           2.080770D-01
2.398536D+01           3.323330D-01
1.218250D+01           3.329870D-01
6.242298D+00           1.568430D-01
3.110944D+00           2.154900D-02
1.509958D+00          -2.095000D-03
7.108450D-01          -1.739000D-03
2.731900D-01          -3.000000D-04
1.042330D-01           2.900000D-05
3.829100D-02          -1.100000D-05
P   16   1.00
1.774569D+04          -1.500000D-05
4.200721D+03          -1.300000D-04
1.364429D+03          -7.510000D-04
5.220806D+02          -3.329000D-03
2.214595D+02          -1.191200D-02
1.009096D+02          -3.493300D-02
4.840115D+01          -7.998900D-02
2.398536D+01          -1.346360D-01
1.218250D+01          -1.385980D-01
6.242298D+00           3.027800D-02
3.110944D+00           3.332160D-01
1.509958D+00           4.561530D-01
7.108450D-01           2.850510D-01
2.731900D-01           4.614400D-02
1.042330D-01          -3.249000D-03
3.829100D-02           1.357000D-03
P   16   1.00
1.774569D+04           5.000000D-06
4.200721D+03           4.200000D-05
1.364429D+03           2.410000D-04
5.220806D+02           1.085000D-03
2.214595D+02           3.831000D-03
1.009096D+02           1.142300D-02
4.840115D+01           2.579200D-02
2.398536D+01           4.481800D-02
1.218250D+01           4.459800D-02
6.242298D+00          -1.117700D-02
3.110944D+00          -1.381340D-01
1.509958D+00          -1.882850D-01
7.108450D-01          -1.073990D-01
2.731900D-01           4.448630D-01
1.042330D-01           6.402390D-01
3.829100D-02           6.445700D-02
P   16   1.00
1.774569D+04           3.000000D-06
4.200721D+03           2.900000D-05
1.364429D+03           1.650000D-04
5.220806D+02           7.340000D-04
2.214595D+02           2.626000D-03
1.009096D+02           7.725000D-03
4.840115D+01           1.773300D-02
2.398536D+01           3.005500D-02
1.218250D+01           3.109400D-02
6.242298D+00          -1.004800D-02
3.110944D+00          -8.830600D-02
1.509958D+00          -1.298240D-01
7.108450D-01          -7.693700D-02
2.731900D-01           2.126610D-01
1.042330D-01           5.730610D-01
3.829100D-02           3.696510D-01
P   1   1.00
3.829100D-02           1.000000D+00
D   8   1.00
1.133440D+02           3.530000D-03
3.364140D+01           2.578400D-02
1.233100D+01           9.911900D-02
4.994780D+00           2.390730D-01
2.072800D+00           3.571990D-01
8.307530D-01           3.621880D-01
3.091780D-01           2.364610D-01
1.001300D-01           6.011800D-02
D   8   1.00
1.133440D+02          -3.890000D-03
3.364140D+01          -2.844200D-02
1.233100D+01          -1.124290D-01
4.994780D+00          -2.742570D-01
2.072800D+00          -3.155460D-01
8.307530D-01           5.710900D-02
3.091780D-01           5.636040D-01
1.001300D-01           3.846370D-01
D   1   1.00
1.001300D-01           1.000000D+00
F   2   1.00
3.224300D+00           4.222490D-01
7.758000D-01           7.714680D-01
****
$end


--------------------------------------------------------------
 Adding empirical dispersion correction 
 ----------------------------------------------------------------
 Doing -D3(BJ) with
 s6  =   1.00000
 s8  =   1.98890
 a1  =   0.39810
 a2  =   4.42110
 -D3 energy without 3body term =     -0.1756832499 hartrees
 ----------------------------------------------------------------
             Standard Nuclear Orientation (Angstroms)
    I     Atom           X                Y                Z
 ----------------------------------------------------------------
    1      C      -1.2706972000     1.8235509000    -1.7893561000
    2      C      -4.1299236000    -1.9963163000    -0.0127680000
    3      H      -4.7976137000    -2.7496113000     0.4389973000
    4      N      -2.8217934000    -2.0729525000     0.6147971000
    5      H      -2.0624070000    -2.1558900000    -0.0587735000
    6      C      -3.9549161000    -2.3213043000    -1.5268104000
    7      O      -5.0177230000    -2.4846411000    -2.1750750000
    8      C      -2.5591229000    -2.0123331000     1.9333772000
    9      O      -3.4387735000    -1.8288545000     2.7934128000
   10      N      -1.9753373000     2.4669082000    -0.8611834000
   11      C      -1.1054757000    -2.2534461000     2.3091128000
   12      H      -0.7196932000    -3.1145856000     1.7428038000
   13      H      -1.0845974000    -2.4957257000     3.3787795000
   14      C      -0.1342542000    -1.0748980000     2.0671930000
   15      C      -0.3492285000     0.0735473000     3.0974844000
   16      C       1.3199832000    -1.5875032000     2.3563229000
   17      H       1.3146627000    -2.1676594000     3.2896992000
   18      H       1.9700585000    -0.7123574000     2.4961564000
   19      C       1.9031471000    -2.4674718000     1.2552137000
   20      O       1.7426029000    -3.7026888000     1.2379532000
   21      N       2.6074057000    -1.7792510000     0.3419635000
   22      H       2.5931057000    -0.7593760000     0.4388266000
   23      C       4.9476381000    -2.0074900000    -0.5061074000
   24      O       5.7095367000    -2.4026829000    -1.4282896000
   25      C       2.3604473000     3.0390736000    -0.3072621000
   26      N       2.8876830000     1.8189230000    -0.2030657000
   27      C       4.0574567000     1.2459364000    -0.8704548000
   28      H       4.4674199000     0.4987473000    -0.1767717000
   29      H       4.8069905000     2.0410085000    -0.9865360000
   30      C       3.0778223000     4.1077493000    -1.0845764000
   31      H       2.6964066000     5.0855502000    -0.7637070000
   32      H       4.1662290000     4.0740515000    -0.9425050000
   33      C       3.7514936000     0.6319602000    -2.2498586000
   34      H       3.4970495000     1.4657735000    -2.9260983000
   35      H       4.6967615000     0.2026567000    -2.6262799000
   36      C       2.6154222000    -0.4100711000    -2.3385851000
   37      H       1.7939799000    -0.1006571000    -1.6791046000
   38      H       2.2058452000    -0.3438112000    -3.3617119000
   39      C       2.9396205000    -1.8976621000    -2.1116677000
   40      H       2.0166140000    -2.4602935000    -2.3389196000
   41      H       3.7079287000    -2.2317300000    -2.8264227000
   42      C       3.4293560000    -2.3284350000    -0.7153749000
   43      H       3.3371699000    -3.4240973000    -0.6537216000
   44      C      -4.2798920000     1.8996582000    -0.1989945000
   45      H      -4.1235875000     2.0139334000     0.8854768000
   46      H      -5.3283095000     2.1737422000    -0.4078929000
   47      C      -1.7345488000     1.7012681000    -3.2119142000
   48      H      -2.3956529000     2.5140776000    -3.5334111000
   49      H      -0.8462267000     1.6748352000    -3.8575254000
   50      C      -3.9865622000     0.4592556000    -0.6062750000
   51      H      -2.9198089000     0.2633190000    -0.4193181000
   52      H      -4.1443480000     0.3424074000    -1.6924269000
   53      C      -4.7829039000    -0.6070979000     0.1410247000
   54      H      -4.8337143000    -0.3649743000     1.2141676000
   55      H      -5.8154428000    -0.6674020000    -0.2395412000
   56      O      -2.7700014000    -2.3467240000    -1.9701848000
   57      O       5.2814667000    -1.3989289000     0.5469073000
   58      O      -0.2484784000    -0.5596087000     0.7759779000
   59      Fe      0.1790118000     1.3217061000     0.6181107000
   60      O      -0.1314931000     1.2657854000     2.6112492000
   61      O      -0.1762726000     1.2671456000    -1.4439581000
   62      O      -1.5101414000     2.4022606000     0.4202206000
   63      O       1.2368754000     3.2614843000     0.2418370000
   64      O      -0.6306756000    -0.1561334000     4.2760965000
   65      O       2.1376539000     0.9188155000     0.4982149000
   66      H      -2.2685109000     0.7429851000    -3.3259201000
   67      H       2.8697400000     3.9883999000    -2.1605298000
   68      C      -3.3723485000     2.8866268000    -0.9473544000
   69      H      -3.4447103000     3.8971617000    -0.5173390000
   70      H      -3.6493693000     2.9439206000    -2.0066552000
 ----------------------------------------------------------------
 Nuclear Repulsion Energy =        6202.19198284 hartrees
 There are      164 alpha and      159 beta electrons
 Requested basis set is non-standard
 There are 339 shells and 739 basis functions

 Total QAlloc Memory Limit   8000 MB
 Mega-Array Size       188 MB
 MEM_STATIC part       192 MB

 -----------------------------------------------------------------------
                STARTING GEOMETRY OPTIMIZER USING LIBOPT3
                by Peter F. McLaughlin, Yu Zhang, Evgeny Epifanovsky
 -----------------------------------------------------------------------

              Initial Energy and Gradient Calculation
   -- Checking Topology for Ill-Behaving Coordinates --

 -------------------------------------------
   Coordinate       |  Removed | Additions 
 -------------------------------------------
	Bonds                     0          0
	Angles                    0          0
	Torsions                  0          0
	Co-Linear Type5s          0          0
	Co-Linear Type6s          0          0
 -------------------------------------------
     Done Checking Topology
 Adding empirical dispersion correction 
 ----------------------------------------------------------------
 Doing -D3(BJ) with
 s6  =   1.00000
 s8  =   1.98890
 a1  =   0.39810
 a2  =   4.42110
 -D3 energy without 3body term =     -0.1756832499 hartrees
 ----------------------------------------------------------------
             Standard Nuclear Orientation (Angstroms)
    I     Atom           X                Y                Z
 ----------------------------------------------------------------
    1      C      -1.2706972000     1.8235509000    -1.7893561000
    2      C      -4.1299236000    -1.9963163000    -0.0127680000
    3      H      -4.7976137000    -2.7496113000     0.4389973000
    4      N      -2.8217934000    -2.0729525000     0.6147971000
    5      H      -2.0624070000    -2.1558900000    -0.0587735000
    6      C      -3.9549161000    -2.3213043000    -1.5268104000
    7      O      -5.0177230000    -2.4846411000    -2.1750750000
    8      C      -2.5591229000    -2.0123331000     1.9333772000
    9      O      -3.4387735000    -1.8288545000     2.7934128000
   10      N      -1.9753373000     2.4669082000    -0.8611834000
   11      C      -1.1054757000    -2.2534461000     2.3091128000
   12      H      -0.7196932000    -3.1145856000     1.7428038000
   13      H      -1.0845974000    -2.4957257000     3.3787795000
   14      C      -0.1342542000    -1.0748980000     2.0671930000
   15      C      -0.3492285000     0.0735473000     3.0974844000
   16      C       1.3199832000    -1.5875032000     2.3563229000
   17      H       1.3146627000    -2.1676594000     3.2896992000
   18      H       1.9700585000    -0.7123574000     2.4961564000
   19      C       1.9031471000    -2.4674718000     1.2552137000
   20      O       1.7426029000    -3.7026888000     1.2379532000
   21      N       2.6074057000    -1.7792510000     0.3419635000
   22      H       2.5931057000    -0.7593760000     0.4388266000
   23      C       4.9476381000    -2.0074900000    -0.5061074000
   24      O       5.7095367000    -2.4026829000    -1.4282896000
   25      C       2.3604473000     3.0390736000    -0.3072621000
   26      N       2.8876830000     1.8189230000    -0.2030657000
   27      C       4.0574567000     1.2459364000    -0.8704548000
   28      H       4.4674199000     0.4987473000    -0.1767717000
   29      H       4.8069905000     2.0410085000    -0.9865360000
   30      C       3.0778223000     4.1077493000    -1.0845764000
   31      H       2.6964066000     5.0855502000    -0.7637070000
   32      H       4.1662290000     4.0740515000    -0.9425050000
   33      C       3.7514936000     0.6319602000    -2.2498586000
   34      H       3.4970495000     1.4657735000    -2.9260983000
   35      H       4.6967615000     0.2026567000    -2.6262799000
   36      C       2.6154222000    -0.4100711000    -2.3385851000
   37      H       1.7939799000    -0.1006571000    -1.6791046000
   38      H       2.2058452000    -0.3438112000    -3.3617119000
   39      C       2.9396205000    -1.8976621000    -2.1116677000
   40      H       2.0166140000    -2.4602935000    -2.3389196000
   41      H       3.7079287000    -2.2317300000    -2.8264227000
   42      C       3.4293560000    -2.3284350000    -0.7153749000
   43      H       3.3371699000    -3.4240973000    -0.6537216000
   44      C      -4.2798920000     1.8996582000    -0.1989945000
   45      H      -4.1235875000     2.0139334000     0.8854768000
   46      H      -5.3283095000     2.1737422000    -0.4078929000
   47      C      -1.7345488000     1.7012681000    -3.2119142000
   48      H      -2.3956529000     2.5140776000    -3.5334111000
   49      H      -0.8462267000     1.6748352000    -3.8575254000
   50      C      -3.9865622000     0.4592556000    -0.6062750000
   51      H      -2.9198089000     0.2633190000    -0.4193181000
   52      H      -4.1443480000     0.3424074000    -1.6924269000
   53      C      -4.7829039000    -0.6070979000     0.1410247000
   54      H      -4.8337143000    -0.3649743000     1.2141676000
   55      H      -5.8154428000    -0.6674020000    -0.2395412000
   56      O      -2.7700014000    -2.3467240000    -1.9701848000
   57      O       5.2814667000    -1.3989289000     0.5469073000
   58      O      -0.2484784000    -0.5596087000     0.7759779000
   59      Fe      0.1790118000     1.3217061000     0.6181107000
   60      O      -0.1314931000     1.2657854000     2.6112492000
   61      O      -0.1762726000     1.2671456000    -1.4439581000
   62      O      -1.5101414000     2.4022606000     0.4202206000
   63      O       1.2368754000     3.2614843000     0.2418370000
   64      O      -0.6306756000    -0.1561334000     4.2760965000
   65      O       2.1376539000     0.9188155000     0.4982149000
   66      H      -2.2685109000     0.7429851000    -3.3259201000
   67      H       2.8697400000     3.9883999000    -2.1605298000
   68      C      -3.3723485000     2.8866268000    -0.9473544000
   69      H      -3.4447103000     3.8971617000    -0.5173390000
   70      H      -3.6493693000     2.9439206000    -2.0066552000
 ----------------------------------------------------------------
 Nuclear Repulsion Energy =        6202.19198284 hartrees
 There are      164 alpha and      159 beta electrons
 Using C-PCM dielectric factor f(eps) = (eps-1)/eps = 0.987243
No default van der Waals radius is available for Z = 26
	Found R = 2.4400 A in the $van_der_waals section
 Discretize the solute cavity surface with Lebedev spheres
	Using 110 Lebedev grid points for each H atom
	Using 194 Lebedev grid points for other atoms
	Atomic van der Waals radii (Bondi set) will be scaled by 1.20
 Using smooth SwiG surface discretization
 Remove points where switching function is < 1.0e-08
 Keep 4063 surface tesserae and discard 6997 interior tesserae
 Molecular Surface Area = 524.967 Angst**2

 Requested basis set is non-standard
 There are 339 shells and 739 basis functions
 A cutoff of  1.0D-12 yielded  47691 shell pairs
 There are    207479 function pairs (    230036 Cartesian)
 Smallest overlap matrix eigenvalue = 2.60E-04

 Scale SEOQF with 1.000000e-02/1.000000e-01/1.000000e-01

 Standard Electronic Orientation quadrupole field applied
 Nucleus-field energy     =     0.0000000045 hartrees
 ================ Generating on-the-fly SAD Guess ================
 Attempting to make child job directory: /scratch/qchem_scratch/qchem186601//Frg1/
 Attempting to make child job directory: /scratch/qchem_scratch/qchem186601//Frg2/
 Attempting to make child job directory: /scratch/qchem_scratch/qchem186601//Frg3/
 Attempting to make child job directory: /scratch/qchem_scratch/qchem186601//Frg4/
 Attempting to make child job directory: /scratch/qchem_scratch/qchem186601//Frg5/
 Creating input file /scratch/qchem_scratch/qchem186601/Frg1.input
 using default PutDataFrgm: nothing
 calling putenv with: QCSCRATCH=/scratch/qchem_scratch/qchem186601/ 
 Spawning Job For Fragment 0
 Done Job For Fragment 0
 calling putenv with: QCSCRATCH=/scratch/qchem_scratch 
 calling putenv with: QCTHREADS=16 
 Creating input file /scratch/qchem_scratch/qchem186601/Frg2.input
 using default PutDataFrgm: nothing
 calling putenv with: QCSCRATCH=/scratch/qchem_scratch/qchem186601/ 
 Spawning Job For Fragment 1
 Done Job For Fragment 1
 calling putenv with: QCSCRATCH=/scratch/qchem_scratch 
 calling putenv with: QCTHREADS=16 
 Creating input file /scratch/qchem_scratch/qchem186601/Frg3.input
 using default PutDataFrgm: nothing
 calling putenv with: QCSCRATCH=/scratch/qchem_scratch/qchem186601/ 
 Spawning Job For Fragment 2
 Done Job For Fragment 2
 calling putenv with: QCSCRATCH=/scratch/qchem_scratch 
 calling putenv with: QCTHREADS=16 
 Creating input file /scratch/qchem_scratch/qchem186601/Frg4.input
 using default PutDataFrgm: nothing
 calling putenv with: QCSCRATCH=/scratch/qchem_scratch/qchem186601/ 
 Spawning Job For Fragment 3
 Done Job For Fragment 3
 calling putenv with: QCSCRATCH=/scratch/qchem_scratch 
 calling putenv with: QCTHREADS=16 
 Creating input file /scratch/qchem_scratch/qchem186601/Frg5.input
 using default PutDataFrgm: nothing
 calling putenv with: QCSCRATCH=/scratch/qchem_scratch/qchem186601/ 
 Spawning Job For Fragment 4
 Done Job For Fragment 4
 calling putenv with: QCSCRATCH=/scratch/qchem_scratch 
 calling putenv with: QCTHREADS=16 
 Time for running child jobs:  CPU 0.02 s  wall 52.07 s
 ============= Method Specific SAD Guess Constructed =============
 Guess from on-the-fly superposition of atomic densities
 Warning: Energy on first SCF cycle will be non-variational

 -----------------------------------------------------------------------
  General SCF calculation program by
  Eric Jon Sundstrom, Paul Horn, Yuezhi Mao, Dmitri Zuev, Alec White,
  David Stuck, Shaama M.S., Shane Yost, Joonho Lee, David Small,
  Daniel Levine, Susi Lehtola, Hugh Burton, Evgeny Epifanovsky,
  Bang C. Huynh
 -----------------------------------------------------------------------
 Exchange:     0.2000 Hartree-Fock + 0.0800 Slater + 0.7200 B88
 Correlation:  0.1900 VWN1RPA + 0.8100 LYP
 Using SG-1 standard quadrature grid
 Dispersion:   Grimme D3
 using 16 threads for integral computing
 -------------------------------------------------------
 OpenMP Integral computing Module                
 Release: version 1.0, May 2013, Q-Chem Inc. Pittsburgh 
 -------------------------------------------------------
 C-PCM solvent model [f = (eps-1)/eps], solve by matrix inversion
 A unrestricted SCF calculation will be
 performed using DIIS
 SCF converges when DIIS error is below 1.0e-08
 ---------------------------------------
  Cycle       Energy         DIIS error
 ---------------------------------------
    1   -3332.2627167395      1.59e-02  
    2   -3316.8103959876      2.17e-03  
    3   -3315.6562040531      3.33e-03  
    4   -3317.8512644410      8.42e-04  
    5   -3317.9554656915      5.10e-04  
    6   -3317.9846995909      3.14e-04  
    7   -3318.0037910262      8.84e-05  
    8   -3318.0056378208      3.52e-05  
    9   -3318.0059815971      1.53e-05  
   10   -3318.0060535536      7.73e-06  
   11   -3318.0060742717      3.76e-06  
   12   -3318.0060803529      1.60e-06  
   13   -3318.0060818983      8.77e-07  
   14   -3318.0060822749      4.32e-07  
   15   -3318.0060823785      2.41e-07  
   16   -3318.0060824017      1.13e-07  
   17   -3318.0060824059      5.53e-08  
   18   -3318.0060824068      2.33e-08  
   19   -3318.0060824071      1.15e-08  
   20   -3318.0060824073      3.93e-09  Convergence criterion met
 ---------------------------------------
 SCF time:   CPU 25154.16s  wall 1847.00s 
<S^2> =          8.758195785

************** Final PCM Free Energy Summary **************
 G_electrostatic  =      -0.52923227 hartree =    -332.09826224 kcal/mol
 G_cavitation     =       0.00000000 hartree =       0.00000000 kcal/mol
 G_dispersion     =       0.00000000 hartree =       0.00000000 kcal/mol
 G_repulsion      =       0.00000000 hartree =       0.00000000 kcal/mol
 --------------------------------------------------
 Non-electrostatic Free Energy =       0.00000000 hartree =       0.00000000 kcal/mol
 Total                         =      -0.52923227 hartree =    -332.09826224 kcal/mol
 --------------------------------------------------
 SCF Energy (H0 + V/2)                       =   -3318.00608241 
 Solute Internal Energy (H0)                 =   -3317.47685014 
 Total Free Energy (H0 + V/2 + non-elec)     =   -3318.00608241 hartree
                                             = -2082080.24154619 kcal/mol
***********************************************************

 SCF   energy in the final basis set =    -3318.0060824073
 Total energy in the final basis set =    -3318.0060824073
 
 --------------------------------------------------------------
 
                    Orbital Energies (a.u.)
 --------------------------------------------------------------
 
 Alpha MOs
 -- Occupied --
******** -30.1283 -25.9821 -25.9794 -25.9791 -19.1303 -19.1265 -19.1224
-19.1189 -19.1104 -19.0900 -19.0857 -19.0849 -19.0833 -19.0596 -19.0524
-19.0509 -19.0492 -14.4057 -14.4017 -14.3200 -14.3124 -10.2838 -10.2806
-10.2714 -10.2625 -10.2601 -10.2453 -10.2393 -10.2262 -10.2185 -10.2105
-10.1945 -10.1904 -10.1897 -10.1895 -10.1764 -10.1760 -10.1706 -10.1673
-10.1656 -10.1650 -10.1641 -10.1638  -3.6103  -2.3878  -2.3826  -2.3815
 -1.0803  -1.0773  -1.0389  -1.0087  -1.0080  -1.0049  -1.0026  -0.9970
 -0.9912  -0.9620  -0.9447  -0.9127  -0.9050  -0.8919  -0.8912  -0.8501
 -0.8473  -0.7881  -0.7820  -0.7634  -0.7500  -0.7409  -0.7241  -0.7193
 -0.7045  -0.6828  -0.6711  -0.6323  -0.6220  -0.6038  -0.5821  -0.5710
 -0.5568  -0.5451  -0.5412  -0.5237  -0.5224  -0.5155  -0.5057  -0.5020
 -0.4953  -0.4931  -0.4884  -0.4824  -0.4749  -0.4677  -0.4615  -0.4547
 -0.4540  -0.4443  -0.4412  -0.4362  -0.4356  -0.4339  -0.4294  -0.4254
 -0.4231  -0.4205  -0.4175  -0.4124  -0.4088  -0.4068  -0.4028  -0.4021
 -0.3997  -0.3995  -0.3961  -0.3939  -0.3894  -0.3856  -0.3824  -0.3798
 -0.3777  -0.3763  -0.3736  -0.3704  -0.3689  -0.3685  -0.3662  -0.3609
 -0.3592  -0.3547  -0.3516  -0.3442  -0.3393  -0.3361  -0.3347  -0.3245
 -0.3207  -0.3187  -0.3145  -0.3119  -0.3097  -0.3066  -0.3028  -0.2998
 -0.2864  -0.2817  -0.2796  -0.2624  -0.2558  -0.2436  -0.2389  -0.2375
 -0.2335  -0.2311  -0.2247  -0.2207  -0.2194  -0.2145  -0.2105  -0.2064
 -0.2049  -0.2023  -0.2005  -0.1944
 -- Virtual --
  0.0170   0.0218   0.0263   0.0390   0.0410   0.0535   0.0600   0.0658
  0.0701   0.0778   0.0798   0.0885   0.0934   0.0976   0.1042   0.1086
  0.1117   0.1141   0.1164   0.1194   0.1253   0.1288   0.1340   0.1382
  0.1414   0.1518   0.1543   0.1552   0.1599   0.1636   0.1659   0.1694
  0.1708   0.1779   0.1794   0.1806   0.1828   0.1869   0.1913   0.1925
  0.1999   0.2038   0.2112   0.2169   0.2217   0.2238   0.2270   0.2307
  0.2348   0.2379   0.2424   0.2506   0.2524   0.2562   0.2619   0.2648
  0.2681   0.2752   0.2841   0.2874   0.2916   0.2944   0.2988   0.3051
  0.3092   0.3183   0.3227   0.3260   0.3330   0.3381   0.3449   0.3568
  0.3680   0.3753   0.3784   0.3804   0.3848   0.3889   0.3997   0.4036
  0.4095   0.4131   0.4213   0.4251   0.4318   0.4356   0.4458   0.4479
  0.4544   0.4555   0.4624   0.4689   0.4723   0.4756   0.4785   0.4869
  0.4905   0.4939   0.5023   0.5064   0.5155   0.5190   0.5264   0.5309
  0.5379   0.5397   0.5430   0.5480   0.5500   0.5529   0.5575   0.5616
  0.5673   0.5695   0.5703   0.5768   0.5805   0.5852   0.5889   0.5930
  0.5947   0.5992   0.6061   0.6115   0.6170   0.6203   0.6230   0.6271
  0.6284   0.6309   0.6326   0.6361   0.6367   0.6397   0.6450   0.6494
  0.6508   0.6529   0.6577   0.6605   0.6622   0.6665   0.6681   0.6693
  0.6720   0.6777   0.6792   0.6847   0.6850   0.6890   0.6904   0.6908
  0.6950   0.6988   0.7020   0.7042   0.7079   0.7096   0.7169   0.7231
  0.7276   0.7298   0.7369   0.7396   0.7420   0.7473   0.7583   0.7601
  0.7628   0.7650   0.7659   0.7778   0.7810   0.7828   0.7867   0.7975
  0.8020   0.8117   0.8181   0.8261   0.8295   0.8377   0.8423   0.8466
  0.8544   0.8593   0.8695   0.8730   0.8788   0.8859   0.8924   0.9017
  0.9100   0.9279   0.9318   0.9371   0.9433   0.9470   0.9533   0.9623
  0.9813   0.9853   0.9905   0.9984   1.0077   1.0118   1.0157   1.0330
  1.0344   1.0410   1.0465   1.0542   1.0618   1.0625   1.0712   1.0722
  1.0822   1.0853   1.0877   1.0983   1.1044   1.1059   1.1117   1.1159
  1.1219   1.1256   1.1277   1.1352   1.1428   1.1439   1.1492   1.1555
  1.1587   1.1637   1.1725   1.1739   1.1820   1.1868   1.1884   1.1903
  1.2018   1.2047   1.2125   1.2138   1.2181   1.2243   1.2268   1.2382
  1.2444   1.2477   1.2573   1.2586   1.2658   1.2710   1.2765   1.2814
  1.2828   1.2875   1.2966   1.2998   1.3071   1.3136   1.3217   1.3292
  1.3360   1.3391   1.3463   1.3515   1.3547   1.3622   1.3692   1.3740
  1.3784   1.3824   1.3875   1.3935   1.3999   1.4128   1.4144   1.4260
  1.4276   1.4378   1.4419   1.4464   1.4583   1.4613   1.4642   1.4677
  1.4790   1.4806   1.4901   1.5009   1.5085   1.5136   1.5185   1.5224
  1.5293   1.5346   1.5412   1.5428   1.5560   1.5604   1.5670   1.5779
  1.5853   1.5921   1.5933   1.5986   1.6018   1.6032   1.6109   1.6137
  1.6208   1.6240   1.6256   1.6308   1.6386   1.6409   1.6459   1.6481
  1.6520   1.6548   1.6588   1.6632   1.6645   1.6708   1.6732   1.6792
  1.6839   1.6852   1.6871   1.6951   1.6974   1.7017   1.7043   1.7066
  1.7138   1.7183   1.7236   1.7254   1.7289   1.7330   1.7354   1.7397
  1.7418   1.7449   1.7510   1.7596   1.7617   1.7671   1.7708   1.7747
  1.7777   1.7822   1.7857   1.7877   1.7923   1.7954   1.7969   1.8018
  1.8082   1.8099   1.8177   1.8198   1.8256   1.8262   1.8349   1.8394
  1.8443   1.8511   1.8556   1.8571   1.8634   1.8731   1.8738   1.8794
  1.8843   1.8874   1.8959   1.8990   1.9080   1.9148   1.9189   1.9216
  1.9308   1.9378   1.9427   1.9456   1.9530   1.9576   1.9648   1.9695
  1.9790   1.9822   1.9914   2.0029   2.0074   2.0095   2.0143   2.0249
  2.0308   2.0383   2.0422   2.0486   2.0553   2.0627   2.0670   2.0724
  2.0869   2.0916   2.1051   2.1117   2.1183   2.1187   2.1222   2.1306
  2.1350   2.1447   2.1466   2.1550   2.1629   2.1742   2.1786   2.1827
  2.1890   2.1947   2.2008   2.2048   2.2127   2.2180   2.2285   2.2340
  2.2402   2.2430   2.2579   2.2639   2.2651   2.2729   2.2771   2.2815
  2.2925   2.2965   2.3068   2.3180   2.3232   2.3273   2.3299   2.3371
  2.3417   2.3510   2.3541   2.3582   2.3708   2.3744   2.3790   2.3838
  2.3882   2.4021   2.4107   2.4182   2.4206   2.4289   2.4305   2.4417
  2.4500   2.4569   2.4676   2.4710   2.4729   2.4829   2.4913   2.4972
  2.5042   2.5109   2.5146   2.5210   2.5365   2.5417   2.5489   2.5559
  2.5723   2.5741   2.5799   2.5831   2.5960   2.6072   2.6166   2.6284
  2.6413   2.6537   2.6589   2.6657   2.6817   2.6846   2.6888   2.6962
  2.7046   2.7128   2.7160   2.7191   2.7235   2.7243   2.7301   2.7332
  2.7371   2.7426   2.7489   2.7534   2.7603   2.7679   2.7734   2.7778
  2.7831   2.7853   2.7892   2.8025   2.8174   2.8220   2.8316   2.8350
  2.8481   2.8767   2.8818   2.9154   2.9225   2.9288   2.9505   2.9543
  2.9702   2.9754   2.9838   3.0147   3.0170   3.0196   3.0312   3.0466
  3.0685   3.0933   3.0983   3.1112   3.1145   3.1262   3.1440   3.1702
  3.2036   3.2047   3.2133   3.2245   3.2342   3.2548   3.2558   3.2800
  3.3705   3.3986   3.4113   3.4162   3.4195   3.4253   3.4387   3.4423
  3.4550   3.4722   3.4797   3.4904   3.5028   3.5108   3.5186   3.5249
  3.5422   3.5801   3.5809   3.5900   3.6018   3.7348   3.7594
 
 Beta MOs
 -- Occupied --
******** -30.0358 -25.9041 -25.9026 -25.9025 -19.1257 -19.1234 -19.1179
-19.1167 -19.1068 -19.0894 -19.0856 -19.0833 -19.0782 -19.0596 -19.0524
-19.0509 -19.0492 -14.4054 -14.4015 -14.3200 -14.3124 -10.2839 -10.2806
-10.2713 -10.2625 -10.2601 -10.2453 -10.2393 -10.2262 -10.2184 -10.2104
-10.1945 -10.1903 -10.1897 -10.1894 -10.1764 -10.1760 -10.1704 -10.1671
-10.1656 -10.1650 -10.1641 -10.1638  -3.3948  -2.1587  -2.1563  -2.1557
 -1.0757  -1.0727  -1.0350  -1.0086  -1.0045  -1.0017  -0.9979  -0.9970
 -0.9912  -0.9537  -0.9352  -0.9127  -0.9050  -0.8918  -0.8910  -0.8455
 -0.8430  -0.7876  -0.7816  -0.7612  -0.7495  -0.7400  -0.7231  -0.7181
 -0.7040  -0.6824  -0.6708  -0.6315  -0.6216  -0.6021  -0.5816  -0.5698
 -0.5551  -0.5425  -0.5380  -0.5199  -0.5173  -0.5093  -0.5032  -0.4938
 -0.4917  -0.4897  -0.4830  -0.4756  -0.4711  -0.4650  -0.4597  -0.4529
 -0.4471  -0.4422  -0.4390  -0.4334  -0.4324  -0.4318  -0.4251  -0.4204
 -0.4187  -0.4113  -0.4072  -0.4043  -0.4019  -0.3998  -0.3987  -0.3965
 -0.3936  -0.3902  -0.3878  -0.3810  -0.3784  -0.3762  -0.3737  -0.3724
 -0.3699  -0.3660  -0.3629  -0.3605  -0.3549  -0.3525  -0.3445  -0.3406
 -0.3386  -0.3359  -0.3238  -0.3209  -0.3193  -0.3160  -0.3120  -0.3099
 -0.3061  -0.3035  -0.2976  -0.2944  -0.2876  -0.2824  -0.2714  -0.2707
 -0.2671  -0.2460  -0.2407  -0.2355  -0.2328  -0.2323  -0.2227  -0.2205
 -0.2150  -0.2139  -0.2062  -0.2049  -0.2016  -0.2002  -0.1945
 -- Virtual --
 -0.0724  -0.0714  -0.0603  -0.0260  -0.0238   0.0208   0.0266   0.0278
  0.0399   0.0417   0.0547   0.0613   0.0663   0.0703   0.0785   0.0801
  0.0888   0.0938   0.0982   0.1053   0.1099   0.1127   0.1145   0.1167
  0.1204   0.1260   0.1292   0.1345   0.1385   0.1418   0.1522   0.1553
  0.1568   0.1615   0.1641   0.1666   0.1712   0.1715   0.1786   0.1802
  0.1811   0.1837   0.1886   0.1928   0.1943   0.2017   0.2058   0.2129
  0.2179   0.2223   0.2246   0.2290   0.2334   0.2378   0.2414   0.2429
  0.2531   0.2533   0.2579   0.2661   0.2682   0.2695   0.2766   0.2856
  0.2886   0.2948   0.2962   0.3006   0.3097   0.3101   0.3208   0.3237
  0.3332   0.3403   0.3444   0.3470   0.3601   0.3713   0.3767   0.3801
  0.3840   0.3895   0.3925   0.4025   0.4062   0.4134   0.4167   0.4253
  0.4273   0.4330   0.4372   0.4490   0.4494   0.4554   0.4565   0.4632
  0.4709   0.4738   0.4771   0.4812   0.4874   0.4913   0.4951   0.5042
  0.5074   0.5166   0.5199   0.5276   0.5318   0.5394   0.5416   0.5439
  0.5488   0.5510   0.5538   0.5582   0.5623   0.5685   0.5700   0.5724
  0.5780   0.5821   0.5862   0.5899   0.5936   0.5965   0.5995   0.6069
  0.6125   0.6176   0.6210   0.6233   0.6277   0.6295   0.6315   0.6331
  0.6370   0.6371   0.6404   0.6472   0.6499   0.6518   0.6536   0.6582
  0.6612   0.6627   0.6671   0.6688   0.6701   0.6731   0.6781   0.6798
  0.6855   0.6859   0.6897   0.6912   0.6923   0.6965   0.7001   0.7025
  0.7051   0.7090   0.7105   0.7188   0.7238   0.7285   0.7307   0.7390
  0.7409   0.7435   0.7480   0.7598   0.7605   0.7640   0.7676   0.7702
  0.7805   0.7825   0.7848   0.7890   0.7984   0.8041   0.8145   0.8206
  0.8295   0.8380   0.8423   0.8465   0.8523   0.8554   0.8621   0.8720
  0.8753   0.8856   0.8871   0.8955   0.9056   0.9120   0.9285   0.9363
  0.9396   0.9466   0.9485   0.9548   0.9647   0.9839   0.9876   0.9927
  1.0023   1.0099   1.0158   1.0189   1.0350   1.0362   1.0439   1.0487
  1.0557   1.0639   1.0644   1.0739   1.0751   1.0841   1.0885   1.0905
  1.0993   1.1067   1.1075   1.1129   1.1196   1.1234   1.1279   1.1311
  1.1406   1.1448   1.1453   1.1521   1.1579   1.1597   1.1650   1.1748
  1.1758   1.1835   1.1899   1.1916   1.1921   1.2030   1.2074   1.2144
  1.2160   1.2201   1.2271   1.2306   1.2400   1.2453   1.2500   1.2594
  1.2599   1.2674   1.2733   1.2824   1.2841   1.2852   1.2920   1.2996
  1.3053   1.3118   1.3177   1.3238   1.3317   1.3389   1.3429   1.3488
  1.3551   1.3598   1.3663   1.3734   1.3779   1.3844   1.3895   1.3927
  1.3973   1.4029   1.4206   1.4249   1.4306   1.4334   1.4445   1.4473
  1.4498   1.4618   1.4654   1.4685   1.4790   1.4831   1.4915   1.4946
  1.5028   1.5154   1.5215   1.5235   1.5270   1.5354   1.5402   1.5489
  1.5542   1.5582   1.5639   1.5776   1.5814   1.5858   1.5936   1.5959
  1.6009   1.6058   1.6079   1.6146   1.6171   1.6235   1.6270   1.6307
  1.6354   1.6414   1.6461   1.6482   1.6530   1.6549   1.6566   1.6621
  1.6669   1.6708   1.6726   1.6757   1.6821   1.6860   1.6882   1.6897
  1.6969   1.7001   1.7052   1.7086   1.7104   1.7180   1.7198   1.7256
  1.7277   1.7317   1.7352   1.7413   1.7426   1.7434   1.7485   1.7524
  1.7631   1.7641   1.7696   1.7744   1.7756   1.7810   1.7842   1.7885
  1.7905   1.7936   1.7983   1.8015   1.8083   1.8105   1.8122   1.8187
  1.8216   1.8273   1.8278   1.8364   1.8420   1.8487   1.8553   1.8585
  1.8597   1.8676   1.8761   1.8776   1.8829   1.8869   1.8901   1.9005
  1.9023   1.9136   1.9194   1.9209   1.9259   1.9321   1.9391   1.9441
  1.9503   1.9567   1.9647   1.9667   1.9708   1.9823   1.9841   1.9983
  2.0064   2.0092   2.0118   2.0162   2.0264   2.0332   2.0393   2.0451
  2.0503   2.0584   2.0651   2.0704   2.0735   2.0888   2.0940   2.1079
  2.1149   2.1202   2.1223   2.1235   2.1322   2.1403   2.1458   2.1485
  2.1558   2.1662   2.1764   2.1799   2.1842   2.1901   2.1978   2.2029
  2.2062   2.2136   2.2198   2.2306   2.2353   2.2419   2.2440   2.2591
  2.2660   2.2691   2.2744   2.2799   2.2837   2.2954   2.3005   2.3134
  2.3186   2.3253   2.3289   2.3318   2.3391   2.3450   2.3525   2.3549
  2.3594   2.3718   2.3753   2.3798   2.3854   2.3927   2.4033   2.4135
  2.4208   2.4222   2.4297   2.4315   2.4426   2.4522   2.4588   2.4685
  2.4723   2.4736   2.4859   2.4947   2.4979   2.5117   2.5125   2.5182
  2.5230   2.5385   2.5475   2.5512   2.5591   2.5736   2.5760   2.5816
  2.5856   2.5989   2.6088   2.6184   2.6309   2.6466   2.6592   2.6620
  2.6709   2.6837   2.6912   2.6927   2.6991   2.7064   2.7202   2.7222
  2.7243   2.7279   2.7308   2.7327   2.7345   2.7423   2.7511   2.7558
  2.7602   2.7654   2.7725   2.7763   2.7819   2.7856   2.7886   2.7936
  2.8102   2.8192   2.8251   2.8390   2.8472   2.8529   2.8873   2.9051
  2.9209   2.9373   2.9457   2.9570   2.9713   2.9771   2.9959   3.0169
  3.0178   3.0315   3.0465   3.0610   3.0903   3.1023   3.1058   3.1130
  3.1264   3.1290   3.1409   3.1798   3.1976   3.2093   3.2132   3.2311
  3.2420   3.2549   3.2561   3.2937   3.3557   3.3959   3.4109   3.4155
  3.4248   3.4262   3.4398   3.4409   3.4492   3.4768   3.4831   3.4897
  3.5036   3.5109   3.5223   3.5282   3.5648   3.5806   3.5886   3.5902
  3.6054   3.6762   3.7413   3.7698
 --------------------------------------------------------------
 
          Ground-State Mulliken Net Atomic Charges

     Atom                 Charge (a.u.)    Spin (a.u.)
  --------------------------------------------------------
      1 C                     0.116422      -0.000826
      2 C                     0.001769       0.000043
      3 H                    -0.022508       0.000047
      4 N                    -0.078575       0.000282
      5 H                     0.086211       0.000269
      6 C                     0.088701       0.000001
      7 O                    -0.451092       0.000006
      8 C                     0.103323      -0.000263
      9 O                    -0.381952       0.000714
     10 N                    -0.019538       0.011892
     11 C                     0.133896       0.005803
     12 H                     0.003132      -0.000013
     13 H                    -0.011187       0.001873
     14 C                    -0.069453       0.003077
     15 C                     0.220125       0.003638
     16 C                     0.102531       0.007779
     17 H                    -0.000146       0.000044
     18 H                     0.013024       0.000108
     19 C                     0.090228      -0.000024
     20 O                    -0.390724       0.000432
     21 N                    -0.076706       0.001228
     22 H                     0.133023       0.001089
     23 C                     0.107103       0.000011
     24 O                    -0.449405       0.000015
     25 C                     0.119223       0.005340
     26 N                    -0.017293       0.009268
     27 C                     0.105544       0.001249
     28 H                     0.019072       0.000662
     29 H                     0.030868       0.001106
     30 C                     0.019635       0.003180
     31 H                     0.046015       0.000222
     32 H                     0.060508      -0.000100
     33 C                    -0.000208       0.000410
     34 H                     0.008293      -0.000046
     35 H                     0.001328       0.000210
     36 C                    -0.062216      -0.000627
     37 H                     0.081918       0.001726
     38 H                    -0.005725       0.000150
     39 C                     0.059485       0.000031
     40 H                    -0.009216      -0.000014
     41 H                    -0.021818       0.000011
     42 C                    -0.013399       0.000005
     43 H                    -0.017365       0.000084
     44 C                     0.000713       0.000823
     45 H                     0.018540       0.000181
     46 H                     0.011547      -0.000228
     47 C                     0.028331       0.003966
     48 H                     0.059223       0.000967
     49 H                     0.051819       0.000265
     50 C                    -0.084232      -0.000349
     51 H                     0.054028       0.000780
     52 H                     0.010493      -0.000013
     53 C                     0.064930      -0.000013
     54 H                    -0.012904       0.000000
     55 H                    -0.012291      -0.000002
     56 O                    -0.446113       0.000044
     57 O                    -0.438978       0.000101
     58 O                    -0.486849       0.219859
     59 Fe                    0.607483       4.167124
     60 O                    -0.402778       0.105005
     61 O                    -0.374106       0.084515
     62 O                    -0.443703       0.134851
     63 O                    -0.354963       0.062396
     64 O                    -0.360222       0.020151
     65 O                    -0.480453       0.135142
     66 H                     0.065743      -0.000347
     67 H                     0.072696       0.000715
     68 C                     0.129274       0.001521
     69 H                     0.026511       0.000610
     70 H                     0.043405       0.001841
  --------------------------------------------------------
  Sum of atomic charges =    -3.000000
  Sum of spin   charges =     5.000000

 -----------------------------------------------------------------
                    Cartesian Multipole Moments
 -----------------------------------------------------------------
    Charge (ESU x 10^10)
               -14.4096
    Dipole Moment (Debye)
         X      -2.6819      Y      24.1867      Z     -11.0115
       Tot      26.7103
    Quadrupole Moments (Debye-Ang)
        XX    -449.9079     XY      11.4255     YY    -318.5093
        XZ      -1.5132     YZ     -35.2351     ZZ    -325.7766
    Octopole Moments (Debye-Ang^2)
       XXX    -384.2879    XXY     589.5759    XYY     -20.1784
       YYY     278.1636    XXZ     108.4736    XYZ      38.8221
       YYZ     -24.6368    XZZ     110.1439    YZZ     135.2985
       ZZZ    -205.0881
    Hexadecapole Moments (Debye-Ang^3)
      XXXX  -19484.7000   XXXY     661.5481   XXYY   -4176.7983
      XYYY     204.2862   YYYY   -6944.1745   XXXZ     215.0068
      XXYZ    -478.6557   XYYZ     -21.5923   YYYZ     281.2030
      XXZZ   -3793.9310   XYZZ    -250.7757   YYZZ   -2053.1354
      XZZZ     499.3251   YZZZ     294.5751   ZZZZ   -5566.3924
 -----------------------------------------------------------------
 Calculating analytic gradient of the SCF energy
 Gradient of SCF Energy
            1           2           3           4           5           6
    1   0.0233914  -0.0437374   0.0452562   0.0888113  -0.0763967   0.0103162
    2  -0.0027364  -0.0262736   0.0486862   0.0089281   0.0018356  -0.0396503
    3   0.0090956   0.0324604  -0.0291112   0.0007423   0.0634729  -0.1560003
            7           8           9          10          11          12
    1   0.1504722  -0.1149659   0.1325937  -0.0049590   0.0052422  -0.0232864
    2   0.0343737  -0.0044892  -0.0150855  -0.0142215  -0.0213143   0.0557568
    3   0.1064029   0.0791916  -0.1410989  -0.0743738   0.0089095   0.0351582
           13          14          15          16          17          18
    1  -0.0038886   0.0039205  -0.0304958   0.0290282  -0.0003562  -0.0433252
    2   0.0207583  -0.0316926   0.0366258   0.0061962   0.0382312  -0.0626377
    3  -0.0700725   0.0048904   0.1793901   0.0310926  -0.0636997  -0.0130739
           19          20          21          22          23          24
    1   0.0304956   0.0130632  -0.0546127   0.0182200   0.1590627  -0.1259606
    2  -0.1224149   0.1943434   0.0449081  -0.0922895   0.0031541   0.0591513
    3  -0.0235954  -0.0055644   0.0559824  -0.0024304   0.0410824   0.1150097
           25          26          27          28          29          30
    1  -0.0253132   0.0232166   0.0226420  -0.0203313  -0.0393022  -0.0021511
    2  -0.0045054   0.0533078   0.0045020   0.0379869  -0.0396002  -0.0115161
    3   0.0246088  -0.0273406   0.0020346  -0.0326784   0.0076207   0.0000307
           31          32          33          34          35          36
    1   0.0165196  -0.0468914   0.0171183   0.0121243  -0.0474432  -0.0408766
    2  -0.0443688   0.0026130   0.0069295  -0.0367317   0.0190990   0.0007501
    3  -0.0145201  -0.0064545  -0.0103671   0.0321560   0.0200172  -0.0063467
           37          38          39          40          41          42
    1   0.0558880   0.0206762  -0.0181680   0.0553121  -0.0369557  -0.0111046
    2  -0.0168875  -0.0033383  -0.0192787   0.0345231   0.0162645  -0.0592158
    3  -0.0414599   0.0550974  -0.0264557   0.0129006   0.0426708  -0.0314957
           43          44          45          46          47          48
    1   0.0032876  -0.0024299  -0.0095280   0.0467422  -0.0007715   0.0312372
    2   0.0751299   0.0072881  -0.0050640  -0.0114799  -0.0086989  -0.0370200
    3   0.0038938   0.0209353  -0.0604516   0.0099350   0.0136156   0.0141074
           49          50          51          52          53          54
    1  -0.0464398   0.0200932  -0.0645658   0.0083557  -0.0186034   0.0058030
    2   0.0014280  -0.0105055   0.0087749   0.0068210   0.0071537  -0.0172666
    3   0.0336150  -0.0044587  -0.0147826   0.0572461   0.0062402  -0.0579613
           55          56          57          58          59          60
    1   0.0553022  -0.1495400  -0.0658700   0.0060852  -0.0166799  -0.0139431
    2   0.0009529   0.0191107  -0.0571663   0.0138089   0.0085264  -0.0961226
    3   0.0184970   0.0798669  -0.1515635   0.0255182  -0.0010916   0.0017888
           61          62          63          64          65          66
    1  -0.0860547   0.0236728   0.0732514   0.0458945  -0.0216596   0.0303945
    2   0.0315584  -0.0234054  -0.0338075   0.0275883   0.0068668   0.0538205
    3  -0.0072737   0.0059511  -0.0406401  -0.2119087   0.0005380   0.0059847
           67          68          69          70
    1   0.0105093  -0.0070606   0.0042816   0.0153874
    2   0.0064915   0.0159429  -0.0486394  -0.0027638
    3   0.0470048  -0.0049225  -0.0215632   0.0480007
 Max gradient component =       2.119E-01
 RMS gradient           =       5.219E-02
 Computing fast CPCM-SWIG gradient
 Updating gradient with PCM contributions...
 -- total gradient after adding PCM contribution --
---------------------------------------------------
  Atom         X              Y              Z     
---------------------------------------------------
   1       0.000010       0.000029      -0.000011
   2       0.000019       0.000107      -0.000016
   3      -0.000002      -0.000000       0.000046
   4      -0.000052      -0.000127       0.000018
   5       0.000003       0.000051      -0.000013
   6      -0.000012      -0.000009      -0.000088
   7       0.000006       0.000033      -0.000001
   8       0.000128       0.000023      -0.000011
   9      -0.000023       0.000017       0.000007
  10      -0.000070      -0.000119      -0.000009
  11      -0.000045       0.000081       0.000012
  12      -0.000012      -0.000010       0.000008
  13       0.000001       0.000032      -0.000006
  14      -0.000148      -0.000110      -0.000034
  15       0.000052      -0.000015      -0.000006
  16       0.000068      -0.000013      -0.000064
  17       0.000017      -0.000004      -0.000003
  18      -0.000029       0.000007       0.000041
  19       0.000081       0.000034       0.000071
  20      -0.000063       0.000006      -0.000046
  21      -0.000027      -0.000064       0.000059
  22      -0.000043       0.000013      -0.000042
  23      -0.000005       0.000055       0.000027
  24      -0.000009       0.000034      -0.000024
  25      -0.000099      -0.000022      -0.000167
  26       0.000190       0.000027       0.000257
  27      -0.000047       0.000021      -0.000067
  28      -0.000001      -0.000007      -0.000016
  29       0.000004      -0.000026       0.000014
  30       0.000037       0.000002       0.000027
  31       0.000005      -0.000008       0.000001
  32      -0.000007      -0.000012      -0.000005
  33      -0.000018       0.000063      -0.000066
  34       0.000005      -0.000020      -0.000000
  35       0.000009      -0.000049       0.000055
  36       0.000022      -0.000058      -0.000065
  37       0.000018      -0.000019       0.000041
  38       0.000023       0.000015       0.000010
  39      -0.000005      -0.000037      -0.000030
  40      -0.000049       0.000058       0.000058
  41       0.000002      -0.000042       0.000029
  42       0.000079      -0.000036      -0.000024
  43      -0.000023      -0.000005      -0.000013
  44      -0.000102       0.000009       0.000067
  45       0.000054      -0.000011      -0.000026
  46       0.000026      -0.000004      -0.000043
  47      -0.000011       0.000020      -0.000044
  48      -0.000006      -0.000008       0.000015
  49       0.000007       0.000014       0.000006
  50      -0.000040       0.000035      -0.000061
  51       0.000008       0.000004       0.000021
  52       0.000030      -0.000007       0.000008
  53       0.000038      -0.000066       0.000094
  54      -0.000023       0.000004      -0.000020
  55      -0.000005       0.000013      -0.000022
  56       0.000007      -0.000023       0.000001
  57      -0.000010      -0.000035       0.000024
  58      -0.000052       0.000080      -0.000036
  59       0.000073       0.000000       0.000000
  60      -0.000017      -0.000015       0.000017
  61       0.000007      -0.000049       0.000075
  62       0.000162       0.000036      -0.000013
  63      -0.000020      -0.000013       0.000027
  64      -0.000027       0.000009      -0.000000
  65      -0.000150       0.000045      -0.000043
  66       0.000030      -0.000004       0.000003
  67      -0.000006       0.000004       0.000006
  68       0.000037       0.000116      -0.000007
  69      -0.000000      -0.000020      -0.000012
  70       0.000001      -0.000029       0.000008
---------------------------------------------------
 Number of fixed atoms: 0
 Gradient time:  CPU 16165.93 s  wall 1075.75 s

 *****************************************************
             Starting BFGS Algorithm
 *****************************************************
            LIBOPT3 RUN PARAMETERS

  Geometry Optimization Coordinates :
	Delocalized Natural Internal Coordinates

  Step Length Selection Method :
	Eigenvector Following Algorithm

  Convergence Criteria :
	Max Gradient Component    	3.00000000e-04
	Max Displacement Component	1.20000000e-03
	Absolute Energy Difference	1.00000000e-06

  Initial Hessian :
	Approximate Hessian - Simple Internal Coordinate Scaled

  Type of Verification :
	Verify with final updated Hessian
 *****************************************************

	OPTIMIZATION CYCLE:	1

 Scaling Magnitude of Eigenvalues
 	Minimum: -25.00000000	 Maximum: 25.00000000
 204 Hessian Eigenvalues to form next step
   0.10000000   0.10000000   0.10000000   0.10000000   0.10000000
   0.10000000   0.10000000   0.10000000   0.10000000   0.10000000
   0.10000034   0.10000073   0.10000161   0.10000296   0.10000387
   0.10000542   0.10001635   0.10002224   0.10003394   0.10003567
   0.10004358   0.10005734   0.10006831   0.10021259   0.10035066
   0.10054965   0.10098375   0.10229845   0.10307117   0.10422067
   0.10574658   0.10612092   0.10673350   0.10740017   0.10880844
   0.11049700   0.11119050   0.11230130   0.11401951   0.11548404
   0.11676952   0.11828618   0.11951863   0.11968798   0.12098512
   0.12226357   0.12272984   0.12441526   0.12459519   0.12562880
   0.12602456   0.12665079   0.12687895   0.12732486   0.12757504
   0.12772871   0.12957560   0.12988140   0.13033155   0.13225777
   0.13334024   0.13441248   0.13485900   0.13607361   0.13927146
   0.13969563   0.14111266   0.14114920   0.14192968   0.14425183
   0.14447143   0.14482892   0.14576884   0.14915255   0.14948820
   0.15006261   0.15378954   0.15555995   0.15640668   0.15645297
   0.15793253   0.15813793   0.15827953   0.15892106   0.15993644
   0.16062668   0.16084644   0.17386896   0.17441372   0.17495260
   0.17548473   0.17620679   0.17743519   0.17800651   0.17925971
   0.18021255   0.18070743   0.18086783   0.18177924   0.18290850
   0.18422406   0.18477990   0.18642706   0.18777086   0.19480262
   0.19513286   0.19575893   0.19787328   0.19841156   0.19906020
   0.19978103   0.19988042   0.19990382   0.19996974   0.19997143
   0.19997821   0.19998625   0.19999645   0.20000000   0.20000000
   0.20000000   0.20000000   0.20000000   0.20000000   0.20000000
   0.20000000   0.20000000   0.20000000   0.20000000   0.20000000
   0.37872806   0.40539371   0.41775762   0.42467447   0.43423045
   0.43466163   0.46350293   0.47076724   0.47606752   0.47850637
   0.48375134   0.48784389   0.49450194   0.49699195   0.49979622
   0.50000000   0.50000000   0.50000000   0.50000000   0.50000000
   0.50000000   0.50000000   0.50000000   0.50000000   0.50000000
   0.50000000   0.50000000   0.50000000   0.50000000   0.50000000
   0.50000000   0.50000000   0.50000000   0.50000000   0.50000000
   0.50000000   0.50000000   0.50000000   0.50000000   0.50000000
   0.50000000   0.50000000   0.50000000   0.50000000   0.50000000
   0.50000000   0.50000000   0.50000000   0.50000000   0.50000000
   0.50000000   0.50000000   0.50000000   0.50000000   0.50000000
   0.50000000   0.50000000   0.50000000   0.50000000   0.50000000
   0.50000000   0.50000000   0.50000000   0.50000000   0.50000000
   0.50000000   0.50000000   0.50000000   0.50000000   0.50000000
   0.50000000   0.50000000   0.50000000   0.50000000

 Minimum Search taking a RFO step
 Searching for Lambda that minimizes along all modes
	Value of Lambda   -0.00000099
	Norm  of Stepsize  0.00279107
	RMS   of Stepsize  0.00019541

	Performing Iterative Coordinate Back-Transformation

	  Starting from Previous Position

	  iter:	0	rms: 3.5534494295e-04	maxdev: 2.4037315750e-03
	  iter:	1	rms: 7.9790887706e-08	maxdev: 7.7421141648e-07	 Success!

	Finished Iterative Coordinate Back-Transformation
 Adding empirical dispersion correction 
 ----------------------------------------------------------------
 Doing -D3(BJ) with
 s6  =   1.00000e+00
 s8  =   1.98890e+00
 a1  =   3.98100e-01
 a2  =   4.42110e+00
 -D3 energy without 3body term =     -1.7568285331e-01 hartrees
 ----------------------------------------------------------------
             Standard Nuclear Orientation (Angstroms)
    I     Atom           X                Y                Z
 ----------------------------------------------------------------
    1      C      -1.2707617709     1.8236128296    -1.7894232097
    2      C      -4.1298962093    -1.9963951448    -0.0127179114
    3      H      -4.7974824080    -2.7497767862     0.4389974043
    4      N      -2.8217107907    -2.0728405963     0.6148170171
    5      H      -2.0623225387    -2.1558393307    -0.0587300664
    6      C      -3.9548745869    -2.3214646395    -1.5266512924
    7      O      -5.0176642182    -2.4851596859    -2.1748765866
    8      C      -2.5590625123    -2.0123775443     1.9334073289
    9      O      -3.4386862412    -1.8291199355     2.7934853201
   10      N      -1.9753914809     2.4670196246    -0.8612666036
   11      C      -1.1052908207    -2.2534489360     2.3091249333
   12      H      -0.7193587404    -3.1144518504     1.7427162771
   13      H      -1.0845038351    -2.4959403145     3.3787593148
   14      C      -0.1340872751    -1.0747334105     2.0673086294
   15      C      -0.3491963908     0.0737527951     3.0975352726
   16      C       1.3200824051    -1.5873433523     2.3564147035
   17      H       1.3147301750    -2.1674503312     3.2898243610
   18      H       1.9703221147    -0.7122857499     2.4960647027
   19      C       1.9030723488    -2.4673411142     1.2551910046
   20      O       1.7426024895    -3.7025684268     1.2380636108
   21      N       2.6073669954    -1.7790786575     0.3419269397
   22      H       2.5933336820    -0.7592319471     0.4389942167
   23      C       4.9475542488    -2.0081118581    -0.5063286029
   24      O       5.7092354785    -2.4039548208    -1.4284054578
   25      C       2.3604989268     3.0390669915    -0.3072155610
   26      N       2.8875707394     1.8188741192    -0.2031069739
   27      C       4.0575186941     1.2459039802    -0.8701617166
   28      H       4.4673874616     0.4987292866    -0.1763880636
   29      H       4.8070583561     2.0410063640    -0.9861464110
   30      C       3.0780271551     4.1076787535    -1.0844936590
   31      H       2.6966633826     5.0855305062    -0.7637049571
   32      H       4.1664279602     4.0739246611    -0.9422891753
   33      C       3.7515257940     0.6321045278    -2.2496042903
   34      H       3.4971533088     1.4660664759    -2.9257053451
   35      H       4.6967289616     0.2028509341    -2.6262279139
   36      C       2.6153005165    -0.4097384419    -2.3384450849
   37      H       1.7938455894    -0.1002790011    -1.6790134233
   38      H       2.2056772627    -0.3433819295    -3.3615636653
   39      C       2.9394361192    -1.8974092976    -2.1117545921
   40      H       2.0164790708    -2.4600544866    -2.3391850967
   41      H       3.7076718440    -2.2313421518    -2.8266562910
   42      C       3.4291170824    -2.3284106586    -0.7154687718
   43      H       3.3367792472    -3.4240546890    -0.6537503417
   44      C      -4.2798859234     1.8995737381    -0.1991653903
   45      H      -4.1236673556     2.0139040461     0.8853297338
   46      H      -5.3283565442     2.1736222469    -0.4079409709
   47      C      -1.7346631865     1.7012232576    -3.2119460150
   48      H      -2.3956381942     2.5140905923    -3.5335810090
   49      H      -0.8463869535     1.6745632725    -3.8576156150
   50      C      -3.9865872121     0.4591553622    -0.6064302553
   51      H      -2.9198297611     0.2631951695    -0.4195921275
   52      H      -4.1445039501     0.3423322437    -1.6925807133
   53      C      -4.7829327698    -0.6071332618     0.1409314147
   54      H      -4.8336215456    -0.3649690869     1.2140873745
   55      H      -5.8154993217    -0.6674587580    -0.2395275871
   56      O      -2.7699738599    -2.3466033403    -1.9700560986
   57      O       5.2818001325    -1.3994982196     0.5465233583
   58      O      -0.2483398951    -0.5596158314     0.7760396294
   59      Fe      0.1789152032     1.3217754278     0.6180484585
   60      O      -0.1315048332     1.2659548736     2.6111920993
   61      O      -0.1763425399     1.2671982062    -1.4440807689
   62      O      -1.5103949060     2.4022776688     0.4201851337
   63      O       1.2368676405     3.2615294195     0.2417170122
   64      O      -0.6305450064    -0.1559147200     4.2761686205
   65      O       2.1376422854     0.9187486248     0.4982358757
   66      H      -2.2688268571     0.7430334826    -3.3258767547
   67      H       2.8700915787     3.9882928233    -2.1604749820
   68      C      -3.3724322420     2.8865965236    -0.9475093656
   69      H      -3.4448393561     3.8971381329    -0.5174492426
   70      H      -3.6493932178     2.9440107449    -2.0068328867
 ----------------------------------------------------------------
 Nuclear Repulsion Energy =        6202.16526515 hartrees
 There are      164 alpha and      159 beta electrons
No default van der Waals radius is available for Z = 26
	Found R = 2.4400 A in the $van_der_waals section
 Discretize the solute cavity surface with Lebedev spheres
	Using 110 Lebedev grid points for each H atom
	Using 194 Lebedev grid points for other atoms
	Atomic van der Waals radii (Bondi set) will be scaled by 1.20
 Using smooth SwiG surface discretization
 Remove points where switching function is < 1.0e-08
 Keep 4062 surface tesserae and discard 6998 interior tesserae
 Molecular Surface Area = 524.970 Angst**2

 Applying Cartesian multipole field
    Component          Value
    ---------          -----
     (2,0,0)        1.00000E-12
     (0,2,0)        2.00000E-11
     (0,0,2)       -3.00000E-11
 Nucleus-field energy     = 4.4798261552e-09 hartrees
 Read the previous MOs as SCF guess

 -----------------------------------------------------------------------
  General SCF calculation program by
  Eric Jon Sundstrom, Paul Horn, Yuezhi Mao, Dmitri Zuev, Alec White,
  David Stuck, Shaama M.S., Shane Yost, Joonho Lee, David Small,
  Daniel Levine, Susi Lehtola, Hugh Burton, Evgeny Epifanovsky,
  Bang C. Huynh
 -----------------------------------------------------------------------
 Requested basis set is non-standard
 There are 339 shells and 739 basis functions
 Exchange:     0.2000 Hartree-Fock + 0.0800 Slater + 0.7200 B88
 Correlation:  0.1900 VWN1RPA + 0.8100 LYP
 Using SG-1 standard quadrature grid
 Dispersion:   Grimme D3
 A cutoff of  1.0D-12 yielded  47693 shell pairs
 There are    207485 function pairs (    230043 Cartesian)
 Smallest overlap matrix eigenvalue = 2.60E-04
 A unrestricted SCF calculation will be
 performed using DIIS
 SCF converges when DIIS error is below 1.0e-08
 ---------------------------------------
  Cycle       Energy         DIIS error
 ---------------------------------------
    1   -3317.4768131173      2.19e-04  
    2   -3317.9487931115      3.34e-04  
    3   -3317.9926719136      1.44e-04  
    4   -3317.9986161761      9.85e-05  
    5   -3318.0014475991      7.76e-05  
    6   -3318.0025944950      6.63e-05  
    7   -3318.0037769057      5.40e-05  
    8   -3318.0046429528      4.26e-05  
    9   -3318.0052406569      3.25e-05  
   10   -3318.0056180811      2.42e-05  
   11   -3318.0058376209      1.76e-05  
   12   -3318.0059894350      1.09e-05  
   13   -3318.0060581876      5.62e-06  
   14   -3318.0060756321      3.10e-06  
   15   -3318.0060809245      1.72e-06  
   16   -3318.0060829905      5.86e-07  
   17   -3318.0060832616      8.54e-09  Convergence criterion met
 ---------------------------------------
 SCF time:   CPU 27252.68s  wall 1943.00s 
<S^2> =          8.758195906

************** Final PCM Free Energy Summary **************
 G_electrostatic  =      -0.52923125 hartree =    -332.09761945 kcal/mol
 G_cavitation     =       0.00000000 hartree =       0.00000000 kcal/mol
 G_dispersion     =       0.00000000 hartree =       0.00000000 kcal/mol
 G_repulsion      =       0.00000000 hartree =       0.00000000 kcal/mol
 --------------------------------------------------
 Non-electrostatic Free Energy =       0.00000000 hartree =       0.00000000 kcal/mol
 Total                         =      -0.52923125 hartree =    -332.09761945 kcal/mol
 --------------------------------------------------
 SCF Energy (H0 + V/2)                       =   -3318.00608326 
 Solute Internal Energy (H0)                 =   -3317.47685202 
 Total Free Energy (H0 + V/2 + non-elec)     =   -3318.00608326 hartree
                                             = -2082080.24208225 kcal/mol
***********************************************************

 SCF   energy in the final basis set =    -3318.0060832616
 Total energy in the final basis set =    -3318.0060832616
 
 --------------------------------------------------------------
 
                    Orbital Energies (a.u.)
 --------------------------------------------------------------
 
 Alpha MOs
 -- Occupied --
******** -30.1284 -25.9821 -25.9794 -25.9791 -19.1303 -19.1265 -19.1224
-19.1189 -19.1104 -19.0900 -19.0857 -19.0849 -19.0833 -19.0596 -19.0524
-19.0509 -19.0492 -14.4057 -14.4017 -14.3200 -14.3124 -10.2838 -10.2806
-10.2714 -10.2625 -10.2601 -10.2453 -10.2393 -10.2262 -10.2185 -10.2105
-10.1945 -10.1904 -10.1897 -10.1895 -10.1764 -10.1760 -10.1706 -10.1673
-10.1656 -10.1650 -10.1641 -10.1638  -3.6103  -2.3879  -2.3826  -2.3815
 -1.0803  -1.0773  -1.0389  -1.0087  -1.0080  -1.0049  -1.0026  -0.9970
 -0.9912  -0.9620  -0.9447  -0.9127  -0.9050  -0.8919  -0.8912  -0.8501
 -0.8473  -0.7881  -0.7820  -0.7634  -0.7500  -0.7409  -0.7241  -0.7193
 -0.7045  -0.6828  -0.6711  -0.6323  -0.6220  -0.6038  -0.5821  -0.5710
 -0.5568  -0.5451  -0.5412  -0.5237  -0.5224  -0.5155  -0.5057  -0.5020
 -0.4953  -0.4931  -0.4884  -0.4824  -0.4749  -0.4677  -0.4615  -0.4547
 -0.4540  -0.4443  -0.4412  -0.4362  -0.4356  -0.4339  -0.4294  -0.4254
 -0.4231  -0.4205  -0.4175  -0.4124  -0.4088  -0.4068  -0.4028  -0.4021
 -0.3997  -0.3995  -0.3961  -0.3939  -0.3894  -0.3856  -0.3824  -0.3798
 -0.3777  -0.3763  -0.3737  -0.3704  -0.3689  -0.3685  -0.3662  -0.3609
 -0.3592  -0.3547  -0.3516  -0.3442  -0.3393  -0.3361  -0.3347  -0.3245
 -0.3207  -0.3187  -0.3145  -0.3119  -0.3097  -0.3066  -0.3028  -0.2998
 -0.2864  -0.2817  -0.2796  -0.2624  -0.2558  -0.2436  -0.2389  -0.2375
 -0.2335  -0.2311  -0.2247  -0.2207  -0.2194  -0.2145  -0.2105  -0.2064
 -0.2048  -0.2023  -0.2005  -0.1943
 -- Virtual --
  0.0170   0.0218   0.0263   0.0390   0.0410   0.0535   0.0600   0.0658
  0.0701   0.0778   0.0798   0.0885   0.0934   0.0976   0.1042   0.1086
  0.1117   0.1141   0.1164   0.1194   0.1253   0.1287   0.1340   0.1382
  0.1414   0.1518   0.1543   0.1552   0.1599   0.1636   0.1659   0.1694
  0.1708   0.1779   0.1795   0.1806   0.1828   0.1869   0.1913   0.1925
  0.1999   0.2038   0.2112   0.2169   0.2217   0.2238   0.2270   0.2307
  0.2348   0.2379   0.2424   0.2506   0.2524   0.2562   0.2619   0.2648
  0.2681   0.2752   0.2841   0.2874   0.2916   0.2944   0.2988   0.3051
  0.3092   0.3183   0.3227   0.3260   0.3330   0.3381   0.3449   0.3568
[...]
    3   0.0090906   0.0324257  -0.0291164   0.0007424   0.0634772  -0.1559645
            7           8           9          10          11          12
    1   0.1504633  -0.1150266   0.1326087  -0.0049506   0.0052608  -0.0232943
    2   0.0344214  -0.0044877  -0.0150624  -0.0142163  -0.0213649   0.0557460
    3   0.1063938   0.0791940  -0.1411223  -0.0743580   0.0089238   0.0351676
           13          14          15          16          17          18
    1  -0.0038825   0.0039792  -0.0304964   0.0290010  -0.0003558  -0.0433329
    2   0.0207661  -0.0316617   0.0366302   0.0061912   0.0382270  -0.0626254
    3  -0.0700630   0.0048790   0.1793961   0.0310830  -0.0636981  -0.0130610
           19          20          21          22          23          24
    1   0.0304905   0.0130544  -0.0545726   0.0182022   0.1590954  -0.1259372
    2  -0.1224186   0.1943324   0.0449409  -0.0922998   0.0030804   0.0592420
    3  -0.0235675  -0.0055732   0.0559574  -0.0024448   0.0410689   0.1150161
           25          26          27          28          29          30
    1  -0.0253196   0.0231956   0.0226273  -0.0203209  -0.0392940  -0.0021561
    2  -0.0045219   0.0533360   0.0044971   0.0379733  -0.0395894  -0.0115157
    3   0.0246184  -0.0273521   0.0020423  -0.0326848   0.0076144   0.0000253
           31          32          33          34          35          36
    1   0.0165168  -0.0468797   0.0171205   0.0121210  -0.0474464  -0.0408867
    2  -0.0443658   0.0026157   0.0069346  -0.0367318   0.0191061   0.0007723
    3  -0.0145147  -0.0064594  -0.0103549   0.0321437   0.0200254  -0.0063403
           37          38          39          40          41          42
    1   0.0558920   0.0206729  -0.0181671   0.0553100  -0.0369545  -0.0111087
    2  -0.0168862  -0.0033433  -0.0192809   0.0345242   0.0162518  -0.0592090
    3  -0.0414626   0.0550878  -0.0264879   0.0129091   0.0426751  -0.0314624
           43          44          45          46          47          48
    1   0.0033008  -0.0024242  -0.0095248   0.0467328  -0.0007685   0.0312284
    2   0.0751279   0.0072924  -0.0050651  -0.0114752  -0.0086981  -0.0370203
    3   0.0038908   0.0209324  -0.0604409   0.0099303   0.0136206   0.0141104
           49          50          51          52          53          54
    1  -0.0464365   0.0201014  -0.0645747   0.0083598  -0.0186094   0.0057928
    2   0.0014401  -0.0105155   0.0087768   0.0068205   0.0071772  -0.0172658
    3   0.0336157  -0.0044490  -0.0147770   0.0572347   0.0062261  -0.0579529
           55          56          57          58          59          60
    1   0.0553092  -0.1495459  -0.0659220   0.0060834  -0.0166804  -0.0139330
    2   0.0009557   0.0190814  -0.0571901   0.0137983   0.0085268  -0.0961229
    3   0.0184943   0.0798808  -0.1515449   0.0255176  -0.0010895   0.0017957
           61          62          63          64          65          66
    1  -0.0860702   0.0236459   0.0732710   0.0458870  -0.0216380   0.0304012
    2   0.0315651  -0.0233945  -0.0338146   0.0275868   0.0068501   0.0538085
    3  -0.0072853   0.0059453  -0.0406390  -0.2119141   0.0005360   0.0059784
           67          68          69          70
    1   0.0105030  -0.0070548   0.0042848   0.0153838
    2   0.0064914   0.0159203  -0.0486221  -0.0027662
    3   0.0470011  -0.0049200  -0.0215590   0.0479919
 Max gradient component =       2.119E-01
 RMS gradient           =       5.219E-02
 Computing fast CPCM-SWIG gradient
 Updating gradient with PCM contributions...
 -- total gradient after adding PCM contribution --
---------------------------------------------------
  Atom         X              Y              Z     
---------------------------------------------------
   1       0.000021       0.000028      -0.000004
   2       0.000002       0.000081      -0.000018
   3       0.000008      -0.000004       0.000026
   4      -0.000027      -0.000124       0.000001
   5       0.000003       0.000047      -0.000006
   6      -0.000002      -0.000004      -0.000059
   7      -0.000000       0.000030      -0.000004
   8       0.000056       0.000042      -0.000004
   9      -0.000005       0.000008      -0.000004
  10      -0.000056      -0.000103       0.000007
  11      -0.000018       0.000041       0.000008
  12      -0.000002      -0.000008       0.000010
  13      -0.000007       0.000023      -0.000001
  14      -0.000091      -0.000069      -0.000035
  15       0.000027       0.000007       0.000009
  16       0.000053      -0.000010      -0.000045
  17       0.000006      -0.000002       0.000003
  18      -0.000017       0.000004       0.000029
  19       0.000034       0.000017       0.000041
  20      -0.000056      -0.000009      -0.000020
  21      -0.000012      -0.000003       0.000028
  22      -0.000029       0.000007      -0.000028
  23      -0.000015       0.000044       0.000018
  24      -0.000005       0.000034      -0.000011
  25      -0.000097      -0.000026      -0.000139
  26       0.000150       0.000043       0.000214
  27      -0.000047       0.000001      -0.000057
  28       0.000004      -0.000003      -0.000004
  29       0.000007      -0.000015       0.000013
  30       0.000027      -0.000002       0.000024
  31       0.000008      -0.000004       0.000003
  32       0.000001      -0.000012      -0.000005
  33      -0.000021       0.000057      -0.000041
  34       0.000007      -0.000016      -0.000004
  35       0.000007      -0.000036       0.000051
  36       0.000020      -0.000031      -0.000046
  37       0.000011      -0.000012       0.000032
  38       0.000010       0.000009       0.000007
  39       0.000004      -0.000035      -0.000035
  40      -0.000041       0.000048       0.000050
  41      -0.000009      -0.000040       0.000013
  42       0.000052      -0.000037      -0.000005
  43      -0.000004      -0.000005       0.000001
  44      -0.000067       0.000005       0.000046
  45       0.000042      -0.000004      -0.000015
  46       0.000015      -0.000001      -0.000032
  47      -0.000000       0.000015      -0.000021
  48      -0.000008      -0.000009       0.000009
  49       0.000006       0.000015       0.000001
  50      -0.000026       0.000021      -0.000039
  51       0.000003       0.000005       0.000018
  52       0.000025      -0.000005      -0.000000
  53       0.000018      -0.000038       0.000058
  54      -0.000017       0.000002      -0.000012
  55      -0.000002       0.000014      -0.000018
  56      -0.000006      -0.000019       0.000017
  57       0.000008      -0.000044       0.000016
  58      -0.000049       0.000046      -0.000030
  59       0.000066       0.000010      -0.000001
  60      -0.000006      -0.000022       0.000011
  61      -0.000005      -0.000046       0.000045
  62       0.000118       0.000046      -0.000017
  63       0.000002      -0.000013       0.000008
  64      -0.000020       0.000001      -0.000000
  65      -0.000115       0.000010      -0.000043
  66       0.000024      -0.000007      -0.000004
  67      -0.000004       0.000002       0.000002
  68       0.000036       0.000080      -0.000006
  69       0.000005      -0.000006      -0.000008
  70       0.000003      -0.000020      -0.000001
---------------------------------------------------
 Number of fixed atoms: 0
 Gradient time:  CPU 19421.27 s  wall 1278.80 s

     Step 1	:
        Energy is -3318.0060832616
                            Maximum         Tolerance       Converged?
         Gradient           6.01555291e-05	3.00000000e-04	true
         Displacement       6.83614186e-04	1.20000000e-03	true
         Energy change      8.54279278e-07	1.00000000e-06	true

	 Optimization Converged in 1 cycles

 *****************************************************
             End of BFGS Algorithm
 *****************************************************
		----------------------------------
		   Verification of Optimization
		----------------------------------

 Eigenvalues of Hessian in Optimization Verification
   0.02342865   0.10000000   0.10000000   0.10000000   0.10000000
   0.10000000   0.10000000   0.10000000   0.10000000   0.10000031
   0.10000040   0.10000096   0.10000285   0.10000375   0.10000483
   0.10001522   0.10002152   0.10003170   0.10003565   0.10004329
   0.10005622   0.10006278   0.10020213   0.10028486   0.10051612
   0.10077098   0.10122068   0.10245048   0.10287829   0.10405955
   0.10570305   0.10615795   0.10663797   0.10735368   0.10883144
   0.11048315   0.11112420   0.11237589   0.11396943   0.11546945
   0.11708188   0.11853646   0.11930448   0.11979740   0.12086395
   0.12215714   0.12304122   0.12437426   0.12464048   0.12540486
   0.12592900   0.12655066   0.12674224   0.12710149   0.12759482
   0.12774074   0.12959669   0.13006364   0.13031599   0.13172648
   0.13336920   0.13413669   0.13483532   0.13610957   0.13926514
   0.13972504   0.14111245   0.14121654   0.14193580   0.14430882
   0.14432945   0.14484085   0.14576617   0.14912896   0.14948892
   0.14984844   0.15378268   0.15559911   0.15640962   0.15646318
   0.15789661   0.15817176   0.15845599   0.15909983   0.15987555
   0.16057186   0.16086380   0.17408522   0.17434331   0.17503427
   0.17518996   0.17590652   0.17731871   0.17827956   0.17918926
   0.18018838   0.18057103   0.18097937   0.18176103   0.18312520
   0.18424479   0.18511006   0.18652364   0.19071824   0.19483888
   0.19518168   0.19577357   0.19787435   0.19842094   0.19904919
   0.19956083   0.19978664   0.19988376   0.19992586   0.19996991
   0.19997195   0.19997838   0.19998800   0.19999880   0.20000000
   0.20000000   0.20000000   0.20000000   0.20000000   0.20000000
   0.20000000   0.20000000   0.20000000   0.20000000   0.23982811
   0.37808517   0.40520051   0.41655215   0.42228449   0.43309281
   0.43501924   0.46410435   0.46733742   0.47302285   0.47625769
   0.48356099   0.48547181   0.49172022   0.49555212   0.49701432
   0.49980138   0.50000000   0.50000000   0.50000000   0.50000000
   0.50000000   0.50000000   0.50000000   0.50000000   0.50000000
   0.50000000   0.50000000   0.50000000   0.50000000   0.50000000
   0.50000000   0.50000000   0.50000000   0.50000000   0.50000000
   0.50000000   0.50000000   0.50000000   0.50000000   0.50000000
   0.50000000   0.50000000   0.50000000   0.50000000   0.50000000
   0.50000000   0.50000000   0.50000000   0.50000000   0.50000000
   0.50000000   0.50000000   0.50000000   0.50000000   0.50000000
   0.50000000   0.50000000   0.50000000   0.50000000   0.50000000
   0.50000000   0.50000000   0.50000000   0.50000000   0.50000000
   0.50000000   0.50000000   0.50000000   0.50000000   0.50000000
   0.50000000   0.50000000   0.50000000   0.53061919

 Found a minimum
		---------------------------------
		       End of Verification
		---------------------------------

 Final energy is -3318.006083261578

	******************************
	**  OPTIMIZATION CONVERGED  **
	******************************
 Adding empirical dispersion correction 
 ----------------------------------------------------------------
 Doing -D3(BJ) with
 s6  =   1.00000
 s8  =   1.98890
 a1  =   0.39810
 a2  =   4.42110
 -D3 energy without 3body term =     -0.1756828533 hartrees
 ----------------------------------------------------------------
             Standard Nuclear Orientation (Angstroms)
    I     Atom           X                Y                Z
 ----------------------------------------------------------------
    1      C      -1.2707617709     1.8236128296    -1.7894232097
    2      C      -4.1298962093    -1.9963951448    -0.0127179114
    3      H      -4.7974824080    -2.7497767862     0.4389974043
    4      N      -2.8217107907    -2.0728405963     0.6148170171
    5      H      -2.0623225387    -2.1558393307    -0.0587300664
    6      C      -3.9548745869    -2.3214646395    -1.5266512924
    7      O      -5.0176642182    -2.4851596859    -2.1748765866
    8      C      -2.5590625123    -2.0123775443     1.9334073289
    9      O      -3.4386862412    -1.8291199355     2.7934853201
   10      N      -1.9753914809     2.4670196246    -0.8612666036
   11      C      -1.1052908207    -2.2534489360     2.3091249333
   12      H      -0.7193587404    -3.1144518504     1.7427162771
   13      H      -1.0845038351    -2.4959403145     3.3787593148
   14      C      -0.1340872751    -1.0747334105     2.0673086294
   15      C      -0.3491963908     0.0737527951     3.0975352726
   16      C       1.3200824051    -1.5873433523     2.3564147035
   17      H       1.3147301750    -2.1674503312     3.2898243610
   18      H       1.9703221147    -0.7122857499     2.4960647027
   19      C       1.9030723488    -2.4673411142     1.2551910046
   20      O       1.7426024895    -3.7025684268     1.2380636108
   21      N       2.6073669954    -1.7790786575     0.3419269397
   22      H       2.5933336820    -0.7592319471     0.4389942167
   23      C       4.9475542488    -2.0081118581    -0.5063286029
   24      O       5.7092354785    -2.4039548208    -1.4284054578
   25      C       2.3604989268     3.0390669915    -0.3072155610
   26      N       2.8875707394     1.8188741192    -0.2031069739
   27      C       4.0575186941     1.2459039802    -0.8701617166
   28      H       4.4673874616     0.4987292866    -0.1763880636
   29      H       4.8070583561     2.0410063640    -0.9861464110
   30      C       3.0780271551     4.1076787535    -1.0844936590
   31      H       2.6966633826     5.0855305062    -0.7637049571
   32      H       4.1664279602     4.0739246611    -0.9422891753
   33      C       3.7515257940     0.6321045278    -2.2496042903
   34      H       3.4971533088     1.4660664759    -2.9257053451
   35      H       4.6967289616     0.2028509341    -2.6262279139
   36      C       2.6153005165    -0.4097384419    -2.3384450849
   37      H       1.7938455894    -0.1002790011    -1.6790134233
   38      H       2.2056772627    -0.3433819295    -3.3615636653
   39      C       2.9394361192    -1.8974092976    -2.1117545921
   40      H       2.0164790708    -2.4600544866    -2.3391850967
   41      H       3.7076718440    -2.2313421518    -2.8266562910
   42      C       3.4291170824    -2.3284106586    -0.7154687718
   43      H       3.3367792472    -3.4240546890    -0.6537503417
   44      C      -4.2798859234     1.8995737381    -0.1991653903
   45      H      -4.1236673556     2.0139040461     0.8853297338
   46      H      -5.3283565442     2.1736222469    -0.4079409709
   47      C      -1.7346631865     1.7012232576    -3.2119460150
   48      H      -2.3956381942     2.5140905923    -3.5335810090
   49      H      -0.8463869535     1.6745632725    -3.8576156150
   50      C      -3.9865872121     0.4591553622    -0.6064302553
   51      H      -2.9198297611     0.2631951695    -0.4195921275
   52      H      -4.1445039501     0.3423322437    -1.6925807133
   53      C      -4.7829327698    -0.6071332618     0.1409314147
   54      H      -4.8336215456    -0.3649690869     1.2140873745
   55      H      -5.8154993217    -0.6674587580    -0.2395275871
   56      O      -2.7699738599    -2.3466033403    -1.9700560986
   57      O       5.2818001325    -1.3994982196     0.5465233583
   58      O      -0.2483398951    -0.5596158314     0.7760396294
   59      Fe      0.1789152032     1.3217754278     0.6180484585
   60      O      -0.1315048332     1.2659548736     2.6111920993
   61      O      -0.1763425399     1.2671982062    -1.4440807689
   62      O      -1.5103949060     2.4022776688     0.4201851337
   63      O       1.2368676405     3.2615294195     0.2417170122
   64      O      -0.6305450064    -0.1559147200     4.2761686205
   65      O       2.1376422854     0.9187486248     0.4982358757
   66      H      -2.2688268571     0.7430334826    -3.3258767547
   67      H       2.8700915787     3.9882928233    -2.1604749820
   68      C      -3.3724322420     2.8865965236    -0.9475093656
   69      H      -3.4448393561     3.8971381329    -0.5174492426
   70      H      -3.6493932178     2.9440107449    -2.0068328867
 ----------------------------------------------------------------
 Nuclear Repulsion Energy =        6202.16526515 hartrees
 There are      164 alpha and      159 beta electrons

Z-matrix Print:
$molecule
-3 6
Fe
O  1 1.935753
C  2 1.394911 1 114.606750
C  3 1.546312 2 112.012900 1 150.855617 0
H  4 1.096974 3 108.004279 2 -170.639499 0
H  4 1.100495 3 107.195883 2 72.276761 0
C  4 1.520767 3 116.163688 2 -50.363898 0
O  7 1.243807 4 121.908620 3 -105.759823 0
N  7 1.345853 4 114.928593 3 77.060983 0
H  9 1.018442 7 120.404448 4 -7.385943 0
C  9 1.452926 7 126.620417 4 174.387762 0
H  11 1.103314 9 109.392475 7 -53.490068 0
C  11 1.542762 9 112.673957 7 67.335228 0
H  13 1.101307 11 108.333060 9 -56.053184 0
H  13 1.102081 11 108.235184 9 -172.656428 0
C  13 1.526331 11 111.067970 9 65.278182 0
H  16 1.100582 13 107.349158 11 -42.097618 0
H  16 1.103770 13 109.465842 11 73.318913 0
C  16 1.525350 13 115.381420 11 -162.544939 0
H  19 1.101638 16 109.486185 13 55.817490 0
H  19 1.103622 16 111.509547 13 -62.607199 0
C  19 1.535482 16 111.300220 13 176.670691 0
H  22 1.096435 19 110.808579 16 70.620873 0
H  22 1.100631 19 111.154310 16 -168.989061 0
N  22 1.461234 19 110.590503 16 -49.452484 0
C  25 1.331146 22 127.136888 19 100.003704 0
O  26 1.275387 25 118.444113 22 -164.089998 0
O  25 1.364746 22 113.252993 19 -60.341081 0
C  26 1.501251 25 122.447671 22 14.310058 0
H  29 1.095943 26 113.827665 25 26.661607 0
H  29 1.098469 26 108.002808 25 148.432175 0
H  29 1.102923 26 108.564203 25 -94.643659 0
C  3 1.557774 2 109.186181 1 26.429069 0
O  33 1.233321 3 121.751031 2 161.542130 0
O  33 1.305858 3 113.813914 2 -22.033096 0
C  11 1.558299 9 107.909340 7 -171.779887 0
O  36 1.255593 11 115.702536 9 170.196975 0
O  36 1.265397 11 116.727420 9 -12.064499 0
C  3 1.568745 2 111.542535 1 -88.315292 0
H  39 1.099002 3 108.934733 2 -168.320087 0
H  39 1.099109 3 108.159249 2 74.083775 0
C  39 1.525440 3 114.187792 2 -47.394305 0
O  42 1.245725 39 122.189053 3 -88.797610 0
N  42 1.343052 39 113.308029 3 92.134909 0
H  44 1.024552 42 116.008365 39 -5.657482 0
C  44 1.447455 42 126.867964 39 171.097171 0
H  46 1.101259 44 106.800368 42 2.133752 0
C  46 1.541157 44 112.044696 42 119.716076 0
H  48 1.101264 46 106.361142 44 171.513860 0
H  48 1.104601 46 108.033707 44 -73.736113 0
C  48 1.539356 46 118.072971 44 47.229570 0
H  51 1.097909 48 109.967927 46 -62.079789 0
H  51 1.104068 48 105.823353 46 -175.206905 0
C  51 1.544130 48 119.251465 46 64.848460 0
H  54 1.103318 51 107.763438 48 150.086654 0
H  54 1.104316 51 110.360639 48 34.306798 0
C  54 1.540533 51 117.807551 48 -88.768443 0
H  57 1.098840 54 109.224641 51 -173.895130 0
H  57 1.098901 54 111.622805 51 67.106269 0
N  57 1.463569 54 113.910927 51 -52.973662 0
C  60 1.333234 57 129.696913 54 -86.521253 0
O  61 1.270183 60 118.441799 57 171.134861 0
O  60 1.365467 57 114.522694 54 84.477124 0
C  61 1.503642 60 120.141723 57 -7.588452 0
H  64 1.097514 61 108.438675 60 -160.048315 0
H  64 1.098170 61 112.591971 60 -38.717431 0
H  64 1.102373 61 109.729356 60 81.676427 0
C  46 1.565881 44 112.044184 42 -113.638640 0
O  68 1.259792 46 115.103926 44 -176.704476 0
O  68 1.261201 46 117.852513 44 3.630744 0
$end

 -----------------------------------------------------------------------
                  END OF GEOMETRY OPTIMIZER USING LIBOPT3               
 -----------------------------------------------------------------------
 Total job time:  6202.88s(wall), 88027.69s(cpu) 
 Sat Jan  6 12:26:29 2024

        *************************************************************
        *                                                           *
        *  Thank you very much for using Q-Chem.  Have a nice day.  *
        *                                                           *
        *************************************************************


