
Running Job 1 of 1 C_FeAB_N_ctL_3sextet_SfS_tpsshD3bj_ccpvdz_pcmH2O_OPT.in
qchem C_FeAB_N_ctL_3sextet_SfS_tpsshD3bj_ccpvdz_pcmH2O_OPT.in_3235100.0 /var/scratch/qchem3235100/ 0
/usr/local/q-chem/exe/qcprog.exe_s C_FeAB_N_ctL_3sextet_SfS_tpsshD3bj_ccpvdz_pcmH2O_OPT.in_3235100.0 /var/scratch/qchem3235100/
                  Welcome to Q-Chem
     A Quantum Leap Into The Future Of Chemistry


 Q-Chem 6.0, Q-Chem, Inc., Pleasanton, CA (2022)

 E. Epifanovsky,  A. T. B. Gilbert,  Xintian Feng,  Joonho Lee,  Yuezhi Mao,  
 N. Mardirossian,  P. Pokhilko,  A. White,  M. Wormit,  M. P. Coons,  
 A. L. Dempwolff,  Zhengting Gan,  D. Hait,  P. R. Horn,  L. D. Jacobson,  
 I. Kaliman,  J. Kussmann,  A. W. Lange,  Ka Un Lao,  D. S. Levine,  Jie Liu,  
 S. C. McKenzie,  A. F. Morrison,  K. Nanda,  F. Plasser,  D. R. Rehn,  
 M. L. Vidal,  Zhi-Qiang You,  Ying Zhu,  B. Alam,  B. Albrecht,  
 A. Aldossary,  E. Alguire,  J. H. Andersen,  V. Athavale,  D. Barton,  
 K. Begam,  A. Behn,  N. Bellonzi,  Y. A. Bernard,  E. J. Berquist,  
 H. Burton,  A. Carreras,  K. Carter-Fenk,  Romit Chakraborty,  
 Chandrima Chakravarty,  Junhan Chen,  A. D. Chien,  K. D. Closser,  
 V. Cofer-Shabica,  L. Cunha,  S. Dasgupta,  Jia Deng,  M. de Wergifosse,  
 M. Diedenhofen,  Hainam Do,  S. Ehlert,  Po-Tung Fang,  S. Fatehi,  
 Qingguo Feng,  T. Friedhoff,  B. Ganoe,  J. Gayvert,  Qinghui Ge,  
 G. Gidofalvi,  M. Goldey,  J. Gomes,  C. Gonzalez-Espinoza,  S. Gulania,  
 A. Gunina,  J. A. Gyamfi,  M. W. D. Hanson-Heine,  P. H. P. Harbach,  
 A. W. Hauser,  M. F. Herbst,  M. Hernandez Vera,  M. Hodecker,  
 Z. C. Holden,  S. Houck,  Xunkun Huang,  Kerwin Hui,  B. C. Huynh,  
 K. Ikeda,  M. Ivanov,  Hyunjun Ji,  Zuxin Jin,  Hanjie Jiang,  B. Kaduk,  
 S. Kaehler,  R. Kang,  K. Khistyaev,  Jaehoon Kim,  Yongbin Kim,  
 P. Klunzinger,  Z. Koczor-Benda,  Joong Hoon Koh,  D. Kosenkov,  
 Saikiran Kotaru,  L. Koulias,  T. Kowalczyk,  C. M. Krauter,  K. Kue,  
 A. Kunitsa,  T. Kus,  A. Landau,  K. V. Lawler,  D. Lefrancois,  S. Lehtola,  
 Rain Li,  Shaozhi Li,  Yi-Pei Li,  Jiashu Liang,  M. Liebenthal,  
 Hung-Hsuan Lin,  You-Sheng Lin,  Fenglai Liu,  Kuan-Yu Liu,  
 M. Loipersberger,  A. Luenser,  C. Malbon,  A. Manjanath,  P. Manohar,  
 E. Mansoor,  S. F. Manzer,  Shan-Ping Mao,  A. V. Marenich,  T. Markovich,  
 S. Mason,  F. Matz,  S. A. Maurer,  P. F. McLaughlin,  M. F. S. J. Menger,  
 J.-M. Mewes,  S. A. Mewes,  P. Morgante,  Mohammad Mostafanejad,  
 J. W. Mullinax,  K. J. Oosterbaan,  G. Paran,  V. Parravicini,  
 Alexander C. Paul,  Suranjan K. Paul,  F. Pavosevic,  Zheng Pei,  S. Prager,  
 E. I. Proynov,  E. Ramos,  B. Rana,  A. E. Rask,  A. Rettig,  R. M. Richard,  
 F. Rob,  E. Rossomme,  T. Scheele,  M. Scheurer,  M. Schneider,  
 P. E. Schneider,  N. Sergueev,  S. M. Sharada,  Hengyuan Shen,  
 W. Skomorowski,  D. W. Small,  C. J. Stein,  Yingli Su,  Yu-Chuan Su,  
 E. J. Sundstrom,  Zhen Tao,  J. Thirman,  Hung-Yi Tsai,  T. Tsuchimochi,  
 N. M. Tubman,  C. Utku,  S. P. Veccham,  O. Vydrov,  J. Wenzel,  
 Jonathan Wong,  J. Witte,  A. Yamada,  Chou-Hsun Yang,  Kun Yao,  
 S. Yeganeh,  S. R. Yost,  A. Zech,  F. Zeller,  Igor Ying Zhang,  
 Xing Zhang,  Yu Zhang,  D. Zuev,  A. Aspuru-Guzik,  A. T. Bell,  
 N. A. Besley,  K. B. Bravaya,  B. R. Brooks,  D. Casanova,  Jeng-Da Chai,  
 Hsing-Ta Chen,  S. Coriani,  C. J. Cramer,  A. E. DePrince, III,  
 R. A. DiStasio Jr.,  A. Dreuw,  B. D. Dunietz,  T. R. Furlani,  
 W. A. Goddard III,  S. Grimme,  S. Hammes-Schiffer,  T. Head-Gordon,  
 W. J. Hehre,  Chao-Ping Hsu,  T.-C. Jagau,  Yousung Jung,  A. Klamt,  
 Jing Kong,  D. S. Lambrecht,  Xiangyuan Li,  WanZhen Liang,  N. J. Mayhall,  
 C. W. McCurdy,  J. B. Neaton,  T. Neudecker,  C. Ochsenfeld,  
 J. A. Parkhill,  R. Peverati,  V. A. Rassolov,  Haisheng Ren,  Yihan Shao,  
 L. V. Slipchenko,  R. P. Steele,  J. E. Subotnik,  A. J. W. Thom,  
 A. Tkatchenko,  D. G. Truhlar,  T. Van Voorhis,  Fan Wang,  
 T. A. Wesolowski,  K. B. Whaley,  H. L. Woodcock III,  P. M. Zimmerman,  
 S. Faraji,  P. M. W. Gill,  M. Head-Gordon,  J. M. Herbert,  A. I. Krylov

 Contributors to earlier versions of Q-Chem not listed above: 
 R. D. Adamson,  B. Austin,  R. Baer,  J. Baker,  G. J. O. Beran,  
 K. Brandhorst,  S. T. Brown,  E. F. C. Byrd,  Arup K. Chakraborty,  
 G. K. L. Chan,  Chun-Min Chang,  Yunqing Chen,  C.-L. Cheng,  
 Siu Hung Chien,  D. M. Chipman,  D. L. Crittenden,  H. Dachsel,  
 R. J. Doerksen,  A. D. Dutoi,  R. G. Edgar,  J. Fosso-Tande,  
 L. Fusti-Molnar,  D. Ghosh,  A. Ghysels,  A. Golubeva-Zadorozhnaya,  
 J. Gonthier,  M. S. Gordon,  S. R. Gwaltney,  G. Hawkins,  J. E. Herr,  
 A. Heyden,  S. Hirata,  E. G. Hohenstein,  G. Kedziora,  F. J. Keil,  
 C. Kelley,  Jihan Kim,  R. A. King,  R. Z. Khaliullin,  P. P. Korambath,  
 W. Kurlancheek,  A. Laurent,  A. M. Lee,  M. S. Lee,  S. V. Levchenko,  
 Ching Yeh Lin,  D. Liotard,  E. Livshits,  R. C. Lochan,  I. Lotan,  
 L. A. Martinez-Martinez,  P. E. Maslen,  N. Nair,  D. P. O'Neill,  
 D. Neuhauser,  E. Neuscamman,  C. M. Oana,  R. Olivares-Amaya,  R. Olson,  
 T. M. Perrine,  B. Peters,  P. A. Pieniazek,  A. Prociuk,  Y. M. Rhee,  
 J. Ritchie,  M. A. Rohrdanz,  E. Rosta,  N. J. Russ,  H. F. Schaefer III,  
 M. W. Schmidt,  N. E. Schultz,  S. Sharma,  N. Shenvi,  C. D. Sherrill,  
 A. C. Simmonett,  A. Sodt,  T. Stein,  D. Stuck,  K. S. Thanthiriwatte,  
 V. Vanovschi,  L. Vogt,  Tao Wang,  A. Warshel,  M. A. Watson,  
 C. F. Williams,  Q. Wu,  X. Xu,  Jun Yang,  W. Zhang,  Yan Zhao

   Please cite Q-Chem as follows:
  "Software for the frontiers of quantum chemistry:
   An overview of developments in the Q-Chem 5 package"
   J. Chem. Phys. 155, 084801 (2021)
   https://doi.org/10.1063/5.0055522 (open access)

 Q-Chem 6.0.2 for Intel X86 EM64T Linux

 Parts of Q-Chem use Armadillo 9.900.5 (Nocturnal Misbehaviour).
 http://arma.sourceforge.net/

 Q-Chem begins on Wed May 22 12:30:26 2024  

 Host: 
0

     Scratch files written to /var/scratch/qchem3235100//
 Dec722 |scratch|qcdevops|jenkins|workspace|build_RNUM 8907   
 Processing $rem in /usr/local/q-chem/config/preferences:
 Processing $rem in /home/acooksy/.qchemrc:
 Symmetry turned off for PCM/SM12/SMD calculation

 Checking the input file for inconsistencies... 	...done.

--------------------------------------------------------------
User input:
--------------------------------------------------------------
$molecule
-3 6
N   -2.6690461    2.6220600    0.7742126
C   -4.1030210   -1.7871287   -0.7353220
H   -4.8113114   -2.3827663   -0.1312774
N   -2.7509547   -2.0627018   -0.2748885
H   -2.1601995   -2.4160716   -1.0265919
C   -4.2198782   -2.2697574   -2.2130859
O   -5.3568055   -2.1576245   -2.7365686
C   -2.3546707   -2.1196453    1.0117121
O   -3.0996645   -1.8138143    1.9596237
C   -1.8782082    3.6231146    1.1629468
C   -2.3422298    5.0514036    1.0426881
H   -3.3233995    5.2077668    1.5141775
H   -1.6004398    5.6947433    1.5316735
H   -2.4225889    5.3452428   -0.0161421
C   -0.9337010   -2.6112806    1.2369945
H   -0.5737005   -3.1822230    0.3716409
H   -0.9491270   -3.2647717    2.1208736
C    0.0909601   -1.4756287    1.4815707
C   -0.1466659   -0.7735466    2.8544679
C    1.5149764   -2.0811872    1.6483694
H    1.4591086   -2.9098391    2.3738019
H    2.1619366   -1.3109350    2.0947772
C    2.2000770   -2.6013996    0.3911214
O    1.6200691   -3.2187302   -0.5167362
N    3.5248573   -2.3525938    0.3698826
H    3.9999744   -1.9232441    1.1645975
C    5.8972469   -2.7509174   -0.0030296
O    6.8102407   -3.3003362   -0.6659706
N    1.9392445    2.1684635   -0.7117912
C    0.8817990    2.2546384   -1.5250812
C    1.0650735    2.5248237   -2.9920973
H    1.9900927    3.0694200   -3.2170616
H    1.0756428    1.5718446   -3.5465060
H    0.2019121    3.1072279   -3.3425688
C    3.2675959    1.7319359   -1.1580931
H    3.9611386    1.9762990   -0.3412017
H    3.5672697    2.3138996   -2.0408677
C    3.2289438    0.2292886   -1.4365021
H    2.7263052   -0.2362436   -0.5801072
H    2.5851271    0.0518155   -2.3160095
C    4.5848018   -0.4331087   -1.6770763
H    5.0707007    0.0398102   -2.5485316
H    5.2481677   -0.2526069   -0.8124426
C    4.4532768   -1.9487401   -1.9216780
H    3.5261543   -2.1502102   -2.4848362
H    5.2917680   -2.3115186   -2.5357969
C    4.4716335   -2.8007420   -0.6347118
H    4.2482973   -3.8443209   -0.9116821
C   -4.0539217    2.1341057   -1.2558950
H   -3.3967754    2.7542582   -1.8895921
H   -5.0870851    2.3088908   -1.6077595
C   -3.9967025    2.6835797    0.1780511
H   -4.6766981    2.1190139    0.8364633
H   -4.3249475    3.7302065    0.1828261
C   -3.6924613    0.6521217   -1.4516339
H   -2.6278431    0.5067172   -1.2283302
H   -3.8456847    0.4111094   -2.5189139
C   -4.5187401   -0.3109460   -0.5990810
H   -4.4347148   -0.0405253    0.4619823
H   -5.5820359   -0.2469382   -0.8843014
O   -3.1666517   -2.7130604   -2.7533677
O    6.0068692   -2.1356166    1.0970822
O    0.0487168   -0.5408541    0.4454979
Fe   -0.2063076    1.2903564    0.9434683
O   -0.0711938    0.5268847    2.8145987
O   -2.1851273    1.3621873    0.9376298
O   -0.7219003    3.3431734    1.6120716
O    1.6858385    1.8990174    0.6090867
O   -0.3040505   -1.4319617    3.8871614
O   -0.2845024    2.1088518   -1.0451670
$end

$rem
BASIS  =  gen
CORRELATION  =  TPSS
DFT_D  =  D3_BJ
EXCHANGE  =  TPSSH
GUI  =  2
JOB_TYPE  =  Optimization
SCF_CONVERGENCE  =  8
SOLVENT_METHOD  =  PCM
$end

$pcm
THEORY  CPCM
$end

$solvent
DIELECTRIC  78.39
$end

$van_der_waals
26   2.44
$end

!----------------------------------------------------------------------
! Basis Set Exchange
! Basis set: cc-pVDZ
!----------------------------------------------------------------------

$rem
BASIS GEN
PURECART 11
$end

$basis
H     0
S   4   1.00
1.301000D+01           1.968500D-02
1.962000D+00           1.379770D-01
4.446000D-01           4.781480D-01
1.220000D-01           5.012400D-01
S   1   1.00
1.220000D-01           1.000000D+00
P   1   1.00
7.270000D-01           1.0000000
****
C     0
S   9   1.00
6.665000D+03           6.920000D-04
1.000000D+03           5.329000D-03
2.280000D+02           2.707700D-02
6.471000D+01           1.017180D-01
2.106000D+01           2.747400D-01
7.495000D+00           4.485640D-01
2.797000D+00           2.850740D-01
5.215000D-01           1.520400D-02
1.596000D-01          -3.191000D-03
S   9   1.00
6.665000D+03          -1.460000D-04
1.000000D+03          -1.154000D-03
2.280000D+02          -5.725000D-03
6.471000D+01          -2.331200D-02
2.106000D+01          -6.395500D-02
7.495000D+00          -1.499810D-01
2.797000D+00          -1.272620D-01
5.215000D-01           5.445290D-01
1.596000D-01           5.804960D-01
S   1   1.00
1.596000D-01           1.000000D+00
P   4   1.00
9.439000D+00           3.810900D-02
2.002000D+00           2.094800D-01
5.456000D-01           5.085570D-01
1.517000D-01           4.688420D-01
P   1   1.00
1.517000D-01           1.000000D+00
D   1   1.00
5.500000D-01           1.0000000
****
N     0
S   9   1.00
9.046000D+03           7.000000D-04
1.357000D+03           5.389000D-03
3.093000D+02           2.740600D-02
8.773000D+01           1.032070D-01
2.856000D+01           2.787230D-01
1.021000D+01           4.485400D-01
3.838000D+00           2.782380D-01
7.466000D-01           1.544000D-02
2.248000D-01          -2.864000D-03
S   9   1.00
9.046000D+03          -1.530000D-04
1.357000D+03          -1.208000D-03
3.093000D+02          -5.992000D-03
8.773000D+01          -2.454400D-02
2.856000D+01          -6.745900D-02
1.021000D+01          -1.580780D-01
3.838000D+00          -1.218310D-01
7.466000D-01           5.490030D-01
2.248000D-01           5.788150D-01
S   1   1.00
2.248000D-01           1.000000D+00
P   4   1.00
1.355000D+01           3.991900D-02
2.917000D+00           2.171690D-01
7.973000D-01           5.103190D-01
2.185000D-01           4.622140D-01
P   1   1.00
2.185000D-01           1.000000D+00
D   1   1.00
8.170000D-01           1.0000000
****
O     0
S   9   1.00
1.172000D+04           7.100000D-04
1.759000D+03           5.470000D-03
4.008000D+02           2.783700D-02
1.137000D+02           1.048000D-01
3.703000D+01           2.830620D-01
1.327000D+01           4.487190D-01
5.025000D+00           2.709520D-01
1.013000D+00           1.545800D-02
3.023000D-01          -2.585000D-03
S   9   1.00
1.172000D+04          -1.600000D-04
1.759000D+03          -1.263000D-03
4.008000D+02          -6.267000D-03
1.137000D+02          -2.571600D-02
3.703000D+01          -7.092400D-02
1.327000D+01          -1.654110D-01
5.025000D+00          -1.169550D-01
1.013000D+00           5.573680D-01
3.023000D-01           5.727590D-01
S   1   1.00
3.023000D-01           1.000000D+00
P   4   1.00
1.770000D+01           4.301800D-02
3.854000D+00           2.289130D-01
1.046000D+00           5.087280D-01
2.753000D-01           4.605310D-01
P   1   1.00
2.753000D-01           1.000000D+00
D   1   1.00
1.185000D+00           1.0000000
****
Fe     0
S   20   1.00
4.316265D+06           8.048803D-06
6.463424D+05           6.258306D-05
1.470897D+05           3.290239D-04
4.166152D+04           1.387355D-03
1.359077D+04           5.023256D-03
4.905750D+03           1.610140D-02
1.912746D+03           4.590034D-02
7.926043D+02           1.136154D-01
3.448065D+02           2.283869D-01
1.558999D+02           3.221159D-01
7.223091D+01           2.383661D-01
3.272506D+01           7.404667D-02
1.566762D+01           9.214197D-02
7.503483D+00           9.339790D-02
3.312223D+00           1.573965D-02
1.558471D+00          -4.186682D-04
6.839140D-01           5.376318D-05
1.467570D-01          -3.816654D-05
7.058300D-02           4.319603D-05
3.144900D-02          -3.401019D-06
S   20   1.00
4.316265D+06          -4.155954D-06
6.463424D+05          -3.231401D-05
1.470897D+05          -1.699525D-04
4.166152D+04          -7.171369D-04
1.359077D+04          -2.603625D-03
4.905750D+03          -8.399109D-03
1.912746D+03          -2.434109D-02
7.926043D+02          -6.251948D-02
3.448065D+02          -1.365929D-01
1.558999D+02          -2.312707D-01
7.223091D+01          -2.383734D-01
3.272506D+01           3.123837D-02
1.566762D+01           5.086818D-01
7.503483D+00           4.987695D-01
3.312223D+00           9.033552D-02
1.558471D+00          -6.005337D-03
6.839140D-01           2.312454D-04
1.467570D-01          -5.643680D-04
7.058300D-02           4.992260D-04
3.144900D-02          -1.015293D-04
S   20   1.00
4.316265D+06           9.532178D-07
6.463424D+05           7.414605D-06
1.470897D+05           3.898393D-05
4.166152D+04           1.647152D-04
1.359077D+04           5.985980D-04
4.905750D+03           1.942390D-03
1.912746D+03           5.687237D-03
7.926043D+02           1.501329D-02
3.448065D+02           3.452455D-02
1.558999D+02           6.495820D-02
7.223091D+01           7.716194D-02
3.272506D+01          -1.873411D-02
1.566762D+01          -3.009185D-01
7.503483D+00          -4.554661D-01
3.312223D+00           1.286463D-01
1.558471D+00           7.183316D-01
6.839140D-01           4.051743D-01
1.467570D-01           2.168227D-02
7.058300D-02          -8.343566D-03
3.144900D-02           3.658979D-03
S   20   1.00
4.316265D+06          -2.063008D-07
6.463424D+05          -1.604169D-06
1.470897D+05          -8.438437D-06
4.166152D+04          -3.563151D-05
1.359077D+04          -1.295998D-04
4.905750D+03          -4.201534D-04
1.912746D+03          -1.231954D-03
7.926043D+02          -3.248922D-03
3.448065D+02          -7.493717D-03
1.558999D+02          -1.410102D-02
7.223091D+01          -1.691600D-02
3.272506D+01           4.218996D-03
1.566762D+01           6.833810D-02
7.503483D+00           1.098201D-01
3.312223D+00          -4.009005D-02
1.558471D+00          -2.174739D-01
6.839140D-01          -2.465135D-01
1.467570D-01           2.731435D-01
7.058300D-02           5.748321D-01
3.144900D-02           3.012713D-01
S   20   1.00
4.316265D+06          -4.009367D-07
6.463424D+05          -3.189255D-06
1.470897D+05          -1.623079D-05
4.166152D+04          -7.157920D-05
1.359077D+04          -2.463958D-04
4.905750D+03          -8.544907D-04
1.912746D+03          -2.307593D-03
7.926043D+02          -6.728292D-03
3.448065D+02          -1.366165D-02
1.558999D+02          -3.062240D-02
7.223091D+01          -2.631137D-02
3.272506D+01          -9.760183D-03
1.566762D+01           1.801906D-01
7.503483D+00           1.529634D-01
3.312223D+00           5.505413D-02
1.558471D+00          -9.551364D-01
6.839140D-01           2.586813D-01
1.467570D-01           1.834049D+00
7.058300D-02          -9.333240D-01
3.144900D-02          -6.981605D-01
S   1   1.00
3.144900D-02           1.000000D+00
P   16   1.00
1.774569D+04           4.100000D-05
4.200721D+03           3.690000D-04
1.364429D+03           2.129000D-03
5.220806D+02           9.369000D-03
2.214595D+02           3.309700D-02
1.009096D+02           9.443100D-02
4.840115D+01           2.080770D-01
2.398536D+01           3.323330D-01
1.218250D+01           3.329870D-01
6.242298D+00           1.568430D-01
3.110944D+00           2.154900D-02
1.509958D+00          -2.095000D-03
7.108450D-01          -1.739000D-03
2.731900D-01          -3.000000D-04
1.042330D-01           2.900000D-05
3.829100D-02          -1.100000D-05
P   16   1.00
1.774569D+04          -1.500000D-05
4.200721D+03          -1.300000D-04
1.364429D+03          -7.510000D-04
5.220806D+02          -3.329000D-03
2.214595D+02          -1.191200D-02
1.009096D+02          -3.493300D-02
4.840115D+01          -7.998900D-02
2.398536D+01          -1.346360D-01
1.218250D+01          -1.385980D-01
6.242298D+00           3.027800D-02
3.110944D+00           3.332160D-01
1.509958D+00           4.561530D-01
7.108450D-01           2.850510D-01
2.731900D-01           4.614400D-02
1.042330D-01          -3.249000D-03
3.829100D-02           1.357000D-03
P   16   1.00
1.774569D+04           5.000000D-06
4.200721D+03           4.200000D-05
1.364429D+03           2.410000D-04
5.220806D+02           1.085000D-03
2.214595D+02           3.831000D-03
1.009096D+02           1.142300D-02
4.840115D+01           2.579200D-02
2.398536D+01           4.481800D-02
1.218250D+01           4.459800D-02
6.242298D+00          -1.117700D-02
3.110944D+00          -1.381340D-01
1.509958D+00          -1.882850D-01
7.108450D-01          -1.073990D-01
2.731900D-01           4.448630D-01
1.042330D-01           6.402390D-01
3.829100D-02           6.445700D-02
P   16   1.00
1.774569D+04           3.000000D-06
4.200721D+03           2.900000D-05
1.364429D+03           1.650000D-04
5.220806D+02           7.340000D-04
2.214595D+02           2.626000D-03
1.009096D+02           7.725000D-03
4.840115D+01           1.773300D-02
2.398536D+01           3.005500D-02
1.218250D+01           3.109400D-02
6.242298D+00          -1.004800D-02
3.110944D+00          -8.830600D-02
1.509958D+00          -1.298240D-01
7.108450D-01          -7.693700D-02
2.731900D-01           2.126610D-01
1.042330D-01           5.730610D-01
3.829100D-02           3.696510D-01
P   1   1.00
3.829100D-02           1.000000D+00
D   8   1.00
1.133440D+02           3.530000D-03
3.364140D+01           2.578400D-02
1.233100D+01           9.911900D-02
4.994780D+00           2.390730D-01
2.072800D+00           3.571990D-01
8.307530D-01           3.621880D-01
3.091780D-01           2.364610D-01
1.001300D-01           6.011800D-02
D   8   1.00
1.133440D+02          -3.890000D-03
3.364140D+01          -2.844200D-02
1.233100D+01          -1.124290D-01
4.994780D+00          -2.742570D-01
2.072800D+00          -3.155460D-01
8.307530D-01           5.710900D-02
3.091780D-01           5.636040D-01
1.001300D-01           3.846370D-01
D   1   1.00
1.001300D-01           1.000000D+00
F   2   1.00
3.224300D+00           4.222490D-01
7.758000D-01           7.714680D-01
****
$end


--------------------------------------------------------------
 Adding empirical dispersion correction 
 ----------------------------------------------------------------
 Doing -D3(BJ) with
 s6  =   1.00000
 s8  =   2.23820
 a1  =   0.45290
 a2  =   4.65500
 -D3 energy without 3body term =     -0.1222749152 hartrees
 ----------------------------------------------------------------
             Standard Nuclear Orientation (Angstroms)
    I     Atom           X                Y                Z
 ----------------------------------------------------------------
    1      N      -2.6690461000     2.6220600000     0.7742126000
    2      C      -4.1030210000    -1.7871287000    -0.7353220000
    3      H      -4.8113114000    -2.3827663000    -0.1312774000
    4      N      -2.7509547000    -2.0627018000    -0.2748885000
    5      H      -2.1601995000    -2.4160716000    -1.0265919000
    6      C      -4.2198782000    -2.2697574000    -2.2130859000
    7      O      -5.3568055000    -2.1576245000    -2.7365686000
    8      C      -2.3546707000    -2.1196453000     1.0117121000
    9      O      -3.0996645000    -1.8138143000     1.9596237000
   10      C      -1.8782082000     3.6231146000     1.1629468000
   11      C      -2.3422298000     5.0514036000     1.0426881000
   12      H      -3.3233995000     5.2077668000     1.5141775000
   13      H      -1.6004398000     5.6947433000     1.5316735000
   14      H      -2.4225889000     5.3452428000    -0.0161421000
   15      C      -0.9337010000    -2.6112806000     1.2369945000
   16      H      -0.5737005000    -3.1822230000     0.3716409000
   17      H      -0.9491270000    -3.2647717000     2.1208736000
   18      C       0.0909601000    -1.4756287000     1.4815707000
   19      C      -0.1466659000    -0.7735466000     2.8544679000
   20      C       1.5149764000    -2.0811872000     1.6483694000
   21      H       1.4591086000    -2.9098391000     2.3738019000
   22      H       2.1619366000    -1.3109350000     2.0947772000
   23      C       2.2000770000    -2.6013996000     0.3911214000
   24      O       1.6200691000    -3.2187302000    -0.5167362000
   25      N       3.5248573000    -2.3525938000     0.3698826000
   26      H       3.9999744000    -1.9232441000     1.1645975000
   27      C       5.8972469000    -2.7509174000    -0.0030296000
   28      O       6.8102407000    -3.3003362000    -0.6659706000
   29      N       1.9392445000     2.1684635000    -0.7117912000
   30      C       0.8817990000     2.2546384000    -1.5250812000
   31      C       1.0650735000     2.5248237000    -2.9920973000
   32      H       1.9900927000     3.0694200000    -3.2170616000
   33      H       1.0756428000     1.5718446000    -3.5465060000
   34      H       0.2019121000     3.1072279000    -3.3425688000
   35      C       3.2675959000     1.7319359000    -1.1580931000
   36      H       3.9611386000     1.9762990000    -0.3412017000
   37      H       3.5672697000     2.3138996000    -2.0408677000
   38      C       3.2289438000     0.2292886000    -1.4365021000
   39      H       2.7263052000    -0.2362436000    -0.5801072000
   40      H       2.5851271000     0.0518155000    -2.3160095000
   41      C       4.5848018000    -0.4331087000    -1.6770763000
   42      H       5.0707007000     0.0398102000    -2.5485316000
   43      H       5.2481677000    -0.2526069000    -0.8124426000
   44      C       4.4532768000    -1.9487401000    -1.9216780000
   45      H       3.5261543000    -2.1502102000    -2.4848362000
   46      H       5.2917680000    -2.3115186000    -2.5357969000
   47      C       4.4716335000    -2.8007420000    -0.6347118000
   48      H       4.2482973000    -3.8443209000    -0.9116821000
   49      C      -4.0539217000     2.1341057000    -1.2558950000
   50      H      -3.3967754000     2.7542582000    -1.8895921000
   51      H      -5.0870851000     2.3088908000    -1.6077595000
   52      C      -3.9967025000     2.6835797000     0.1780511000
   53      H      -4.6766981000     2.1190139000     0.8364633000
   54      H      -4.3249475000     3.7302065000     0.1828261000
   55      C      -3.6924613000     0.6521217000    -1.4516339000
   56      H      -2.6278431000     0.5067172000    -1.2283302000
   57      H      -3.8456847000     0.4111094000    -2.5189139000
   58      C      -4.5187401000    -0.3109460000    -0.5990810000
   59      H      -4.4347148000    -0.0405253000     0.4619823000
   60      H      -5.5820359000    -0.2469382000    -0.8843014000
   61      O      -3.1666517000    -2.7130604000    -2.7533677000
   62      O       6.0068692000    -2.1356166000     1.0970822000
   63      O       0.0487168000    -0.5408541000     0.4454979000
   64      Fe     -0.2063076000     1.2903564000     0.9434683000
   65      O      -0.0711938000     0.5268847000     2.8145987000
   66      O      -2.1851273000     1.3621873000     0.9376298000
   67      O      -0.7219003000     3.3431734000     1.6120716000
   68      O       1.6858385000     1.8990174000     0.6090867000
   69      O      -0.3040505000    -1.4319617000     3.8871614000
   70      O      -0.2845024000     2.1088518000    -1.0451670000
 ----------------------------------------------------------------
 Nuclear Repulsion Energy =        6047.12878584 hartrees
 There are      164 alpha and      159 beta electrons
 Requested basis set is non-standard
 There are 339 shells and 739 basis functions

 Total QAlloc Memory Limit  64000 MB
 Mega-Array Size       188 MB
 MEM_STATIC part       192 MB

 -----------------------------------------------------------------------
                STARTING GEOMETRY OPTIMIZER USING LIBOPT3
                by Peter F. McLaughlin, Yu Zhang, Evgeny Epifanovsky
 -----------------------------------------------------------------------

              Initial Energy and Gradient Calculation
   -- Checking Topology for Ill-Behaving Coordinates --

 -------------------------------------------
   Coordinate       |  Removed | Additions 
 -------------------------------------------
	Bonds                     0          0
	Angles                    2          0
	Torsions                  4          4
	Co-Linear Type5s          0          4
	Co-Linear Type6s          0          4
 -------------------------------------------

 ** Ill-Behaving Topology Definitions (No action needed.) **

  Ill-Defined Angles Removed: 
  63  64  67,  65  64  70

  Ill-Defined Torsions Removed: 
  18  63  64  67,  19  65  64  70,  63  64  67  10,  65  64  70  30

     Done Checking Topology
 Adding empirical dispersion correction 
 ----------------------------------------------------------------
 Doing -D3(BJ) with
 s6  =   1.00000
 s8  =   2.23820
 a1  =   0.45290
 a2  =   4.65500
 -D3 energy without 3body term =     -0.1222749152 hartrees
 ----------------------------------------------------------------
             Standard Nuclear Orientation (Angstroms)
    I     Atom           X                Y                Z
 ----------------------------------------------------------------
    1      N      -2.6690461000     2.6220600000     0.7742126000
    2      C      -4.1030210000    -1.7871287000    -0.7353220000
    3      H      -4.8113114000    -2.3827663000    -0.1312774000
    4      N      -2.7509547000    -2.0627018000    -0.2748885000
    5      H      -2.1601995000    -2.4160716000    -1.0265919000
    6      C      -4.2198782000    -2.2697574000    -2.2130859000
    7      O      -5.3568055000    -2.1576245000    -2.7365686000
    8      C      -2.3546707000    -2.1196453000     1.0117121000
    9      O      -3.0996645000    -1.8138143000     1.9596237000
   10      C      -1.8782082000     3.6231146000     1.1629468000
   11      C      -2.3422298000     5.0514036000     1.0426881000
   12      H      -3.3233995000     5.2077668000     1.5141775000
   13      H      -1.6004398000     5.6947433000     1.5316735000
   14      H      -2.4225889000     5.3452428000    -0.0161421000
   15      C      -0.9337010000    -2.6112806000     1.2369945000
   16      H      -0.5737005000    -3.1822230000     0.3716409000
   17      H      -0.9491270000    -3.2647717000     2.1208736000
   18      C       0.0909601000    -1.4756287000     1.4815707000
   19      C      -0.1466659000    -0.7735466000     2.8544679000
   20      C       1.5149764000    -2.0811872000     1.6483694000
   21      H       1.4591086000    -2.9098391000     2.3738019000
   22      H       2.1619366000    -1.3109350000     2.0947772000
   23      C       2.2000770000    -2.6013996000     0.3911214000
   24      O       1.6200691000    -3.2187302000    -0.5167362000
   25      N       3.5248573000    -2.3525938000     0.3698826000
   26      H       3.9999744000    -1.9232441000     1.1645975000
   27      C       5.8972469000    -2.7509174000    -0.0030296000
   28      O       6.8102407000    -3.3003362000    -0.6659706000
   29      N       1.9392445000     2.1684635000    -0.7117912000
   30      C       0.8817990000     2.2546384000    -1.5250812000
   31      C       1.0650735000     2.5248237000    -2.9920973000
   32      H       1.9900927000     3.0694200000    -3.2170616000
   33      H       1.0756428000     1.5718446000    -3.5465060000
   34      H       0.2019121000     3.1072279000    -3.3425688000
   35      C       3.2675959000     1.7319359000    -1.1580931000
   36      H       3.9611386000     1.9762990000    -0.3412017000
   37      H       3.5672697000     2.3138996000    -2.0408677000
   38      C       3.2289438000     0.2292886000    -1.4365021000
   39      H       2.7263052000    -0.2362436000    -0.5801072000
   40      H       2.5851271000     0.0518155000    -2.3160095000
   41      C       4.5848018000    -0.4331087000    -1.6770763000
   42      H       5.0707007000     0.0398102000    -2.5485316000
   43      H       5.2481677000    -0.2526069000    -0.8124426000
   44      C       4.4532768000    -1.9487401000    -1.9216780000
   45      H       3.5261543000    -2.1502102000    -2.4848362000
   46      H       5.2917680000    -2.3115186000    -2.5357969000
   47      C       4.4716335000    -2.8007420000    -0.6347118000
   48      H       4.2482973000    -3.8443209000    -0.9116821000
   49      C      -4.0539217000     2.1341057000    -1.2558950000
   50      H      -3.3967754000     2.7542582000    -1.8895921000
   51      H      -5.0870851000     2.3088908000    -1.6077595000
   52      C      -3.9967025000     2.6835797000     0.1780511000
   53      H      -4.6766981000     2.1190139000     0.8364633000
   54      H      -4.3249475000     3.7302065000     0.1828261000
   55      C      -3.6924613000     0.6521217000    -1.4516339000
   56      H      -2.6278431000     0.5067172000    -1.2283302000
   57      H      -3.8456847000     0.4111094000    -2.5189139000
   58      C      -4.5187401000    -0.3109460000    -0.5990810000
   59      H      -4.4347148000    -0.0405253000     0.4619823000
   60      H      -5.5820359000    -0.2469382000    -0.8843014000
   61      O      -3.1666517000    -2.7130604000    -2.7533677000
   62      O       6.0068692000    -2.1356166000     1.0970822000
   63      O       0.0487168000    -0.5408541000     0.4454979000
   64      Fe     -0.2063076000     1.2903564000     0.9434683000
   65      O      -0.0711938000     0.5268847000     2.8145987000
   66      O      -2.1851273000     1.3621873000     0.9376298000
   67      O      -0.7219003000     3.3431734000     1.6120716000
   68      O       1.6858385000     1.8990174000     0.6090867000
   69      O      -0.3040505000    -1.4319617000     3.8871614000
   70      O      -0.2845024000     2.1088518000    -1.0451670000
 ----------------------------------------------------------------
 Nuclear Repulsion Energy =        6047.12878584 hartrees
 There are      164 alpha and      159 beta electrons
 Using C-PCM dielectric factor f(eps) = (eps-1)/eps = 0.987243
No default van der Waals radius is available for Z = 26
	Found R = 2.4400 A in the $van_der_waals section
 Discretize the solute cavity surface with Lebedev spheres
	Using 110 Lebedev grid points for each H atom
	Using 194 Lebedev grid points for other atoms
	Atomic van der Waals radii (Bondi set) will be scaled by 1.20
 Using smooth SwiG surface discretization
 Remove points where switching function is < 1.0e-08
 Keep 4148 surface tesserae and discard 6912 interior tesserae
 Molecular Surface Area = 533.374 Angst**2

 Requested basis set is non-standard
 There are 339 shells and 739 basis functions
 A cutoff of  1.0D-12 yielded  45570 shell pairs
 There are    198360 function pairs (    219956 Cartesian)
 Smallest overlap matrix eigenvalue = 2.97E-04

 Scale SEOQF with 1.000000e-02/1.000000e-02/1.000000e-01

 Standard Electronic Orientation quadrupole field applied
 Nucleus-field energy     =    -0.0000000650 hartrees
 ================ Generating on-the-fly SAD Guess ================
 Attempting to make child job directory: /var/scratch/qchem3235100//Frg1/
 Attempting to make child job directory: /var/scratch/qchem3235100//Frg2/
 Attempting to make child job directory: /var/scratch/qchem3235100//Frg3/
 Attempting to make child job directory: /var/scratch/qchem3235100//Frg4/
 Attempting to make child job directory: /var/scratch/qchem3235100//Frg5/
 Creating input file /var/scratch/qchem3235100/Frg1.input
 using default PutDataFrgm: nothing
 calling putenv with: QCSCRATCH=/var/scratch/qchem3235100/ 
 calling putenv with: BRIANQC_ENABLE=0 
 Spawning Job For Fragment 0
 Done Job For Fragment 0
 calling putenv with: QCSCRATCH=/var/scratch 
 calling putenv with: QCTHREADS=12 
 Creating input file /var/scratch/qchem3235100/Frg2.input
 using default PutDataFrgm: nothing
 calling putenv with: QCSCRATCH=/var/scratch/qchem3235100/ 
 calling putenv with: BRIANQC_ENABLE=0 
 Spawning Job For Fragment 1
 Done Job For Fragment 1
 calling putenv with: QCSCRATCH=/var/scratch 
 calling putenv with: QCTHREADS=12 
 Creating input file /var/scratch/qchem3235100/Frg3.input
 using default PutDataFrgm: nothing
 calling putenv with: QCSCRATCH=/var/scratch/qchem3235100/ 
 calling putenv with: BRIANQC_ENABLE=0 
 Spawning Job For Fragment 2
 Done Job For Fragment 2
 calling putenv with: QCSCRATCH=/var/scratch 
 calling putenv with: QCTHREADS=12 
 Creating input file /var/scratch/qchem3235100/Frg4.input
 using default PutDataFrgm: nothing
 calling putenv with: QCSCRATCH=/var/scratch/qchem3235100/ 
 calling putenv with: BRIANQC_ENABLE=0 
 Spawning Job For Fragment 3
 Done Job For Fragment 3
 calling putenv with: QCSCRATCH=/var/scratch 
 calling putenv with: QCTHREADS=12 
 Creating input file /var/scratch/qchem3235100/Frg5.input
 using default PutDataFrgm: nothing
 calling putenv with: QCSCRATCH=/var/scratch/qchem3235100/ 
 calling putenv with: BRIANQC_ENABLE=0 
 Spawning Job For Fragment 4
 Done Job For Fragment 4
 calling putenv with: QCSCRATCH=/var/scratch 
 calling putenv with: QCTHREADS=12 
 Time for running child jobs:  CPU 0.02 s  wall 366.53 s
 ============= Method Specific SAD Guess Constructed =============
 Guess from on-the-fly superposition of atomic densities
 Warning: Energy on first SCF cycle will be non-variational

 -----------------------------------------------------------------------
  General SCF calculation program by
  Eric Jon Sundstrom, Paul Horn, Yuezhi Mao, Dmitri Zuev, Alec White,
  David Stuck, Shaama M.S., Shane Yost, Joonho Lee, David Small,
  Daniel Levine, Susi Lehtola, Hugh Burton, Evgeny Epifanovsky,
  Bang C. Huynh
 -----------------------------------------------------------------------
 Exchange:     0.1000 Hartree-Fock + 0.9000 TPSS
 Correlation:  1.0000 TPSS
 Using SG-2 standard quadrature grid
 Dispersion:   Grimme D3
 using 12 threads for integral computing
 -------------------------------------------------------
 OpenMP Integral computing Module                
 Release: version 1.0, May 2013, Q-Chem Inc. Pittsburgh 
 -------------------------------------------------------
 C-PCM solvent model [f = (eps-1)/eps], solve by matrix inversion
 A unrestricted SCF calculation will be
 performed using DIIS
 SCF converges when DIIS error is below 1.0e-08
 ---------------------------------------
  Cycle       Energy         DIIS error
 ---------------------------------------
    1   -3330.8822310812      1.57e-02  
    2   -3317.0113803560      2.04e-03  
    3   -3314.9678312006      3.75e-03  
    4   -3317.1815841805      2.16e-03  
    5   -3317.8781254643      8.25e-04  
    6   -3317.9942466981      2.88e-04  
    7   -3318.0088217934      1.47e-04  
    8   -3318.0135222922      4.76e-05  
    9   -3318.0140088742      2.82e-05  
   10   -3318.0141794040      1.52e-05  
   11   -3318.0142376551      6.27e-06  
   12   -3318.0142505230      2.28e-06  
   13   -3318.0142526106      1.62e-06  
   14   -3318.0142533417      7.07e-07  
   15   -3318.0142534686      3.86e-07  
   16   -3318.0142535180      1.76e-07  
   17   -3318.0142535271      1.07e-07  
   18   -3318.0142535302      4.73e-08  
   19   -3318.0142535308      2.01e-08  
   20   -3318.0142535310      1.56e-08  
   21   -3318.0142535309      4.89e-09  Convergence criterion met
 ---------------------------------------
 SCF time:   CPU 47102.00s  wall 25670.00s 
<S^2> =          8.757114261

************** Final PCM Free Energy Summary **************
 G_electrostatic  =      -0.52554061 hartree =    -329.78170704 kcal/mol
 G_cavitation     =       0.00000000 hartree =       0.00000000 kcal/mol
 G_dispersion     =       0.00000000 hartree =       0.00000000 kcal/mol
 G_repulsion      =       0.00000000 hartree =       0.00000000 kcal/mol
 --------------------------------------------------
 Non-electrostatic Free Energy =       0.00000000 hartree =       0.00000000 kcal/mol
 Total                         =      -0.52554061 hartree =    -329.78170704 kcal/mol
 --------------------------------------------------
 SCF Energy (H0 + V/2)                       =   -3318.01425353 
 Solute Internal Energy (H0)                 =   -3317.48871293 
 Total Free Energy (H0 + V/2 + non-elec)     =   -3318.01425353 hartree
                                             = -2082085.36900362 kcal/mol
***********************************************************

 SCF   energy in the final basis set =    -3318.0142535309
 Total energy in the final basis set =    -3318.0142535309
 
 --------------------------------------------------------------
 
                    Orbital Energies (a.u.)
 --------------------------------------------------------------
 
 Alpha MOs
 -- Occupied --
******** -29.9552 -25.7863 -25.7833 -25.7821 -19.0457 -19.0435 -19.0414
-19.0384 -19.0297 -19.0137 -19.0076 -19.0073 -19.0047 -18.9844 -18.9806
-18.9773 -18.9736 -14.3265 -14.3258 -14.2557 -14.2495 -10.2097 -10.2074
-10.2005 -10.1988 -10.1913 -10.1782 -10.1749 -10.1592 -10.1541 -10.1530
-10.1335 -10.1290 -10.1270 -10.1262 -10.1145 -10.1133 -10.1098 -10.1080
-10.1072 -10.1025 -10.0980 -10.0977  -3.5372  -2.3142  -2.3085  -2.3060
 -1.0465  -1.0418  -1.0072  -0.9872  -0.9785  -0.9759  -0.9723  -0.9719
 -0.9680  -0.9316  -0.9151  -0.8899  -0.8851  -0.8722  -0.8645  -0.8222
 -0.8190  -0.7651  -0.7622  -0.7400  -0.7253  -0.7173  -0.7009  -0.6947
 -0.6811  -0.6588  -0.6485  -0.6101  -0.5996  -0.5783  -0.5588  -0.5567
 -0.5253  -0.5242  -0.5171  -0.5084  -0.4960  -0.4871  -0.4848  -0.4746
 -0.4727  -0.4670  -0.4604  -0.4558  -0.4480  -0.4441  -0.4391  -0.4350
 -0.4309  -0.4269  -0.4231  -0.4217  -0.4147  -0.4108  -0.4033  -0.4030
 -0.3992  -0.3927  -0.3918  -0.3868  -0.3837  -0.3816  -0.3799  -0.3763
 -0.3744  -0.3716  -0.3689  -0.3630  -0.3613  -0.3595  -0.3542  -0.3533
 -0.3513  -0.3499  -0.3479  -0.3442  -0.3433  -0.3387  -0.3372  -0.3353
 -0.3315  -0.3291  -0.3250  -0.3220  -0.3204  -0.3150  -0.3122  -0.3062
 -0.3036  -0.3018  -0.2953  -0.2921  -0.2918  -0.2856  -0.2810  -0.2724
 -0.2574  -0.2551  -0.2518  -0.2343  -0.2246  -0.2217  -0.2169  -0.2136
 -0.2088  -0.2058  -0.2023  -0.2014  -0.1971  -0.1942  -0.1915  -0.1847
 -0.1843  -0.1811  -0.1767  -0.1688
 -- Virtual --
  0.0069   0.0158   0.0201   0.0296   0.0397   0.0483   0.0575   0.0642
  0.0669   0.0700   0.0828   0.0877   0.0896   0.0981   0.1010   0.1067
  0.1078   0.1100   0.1170   0.1196   0.1223   0.1257   0.1295   0.1329
  0.1377   0.1420   0.1471   0.1510   0.1558   0.1584   0.1654   0.1662
  0.1687   0.1711   0.1722   0.1794   0.1822   0.1842   0.1900   0.1919
  0.1966   0.2019   0.2078   0.2115   0.2138   0.2162   0.2180   0.2223
  0.2256   0.2326   0.2359   0.2406   0.2447   0.2490   0.2532   0.2576
  0.2602   0.2645   0.2685   0.2710   0.2792   0.2798   0.2844   0.2899
  0.2926   0.3047   0.3095   0.3207   0.3295   0.3364   0.3474   0.3504
  0.3507   0.3585   0.3711   0.3773   0.3823   0.3850   0.3907   0.3984
  0.4059   0.4122   0.4171   0.4243   0.4278   0.4346   0.4389   0.4478
  0.4483   0.4538   0.4611   0.4628   0.4682   0.4728   0.4771   0.4812
  0.4934   0.4955   0.5017   0.5061   0.5117   0.5151   0.5216   0.5281
  0.5318   0.5381   0.5400   0.5436   0.5501   0.5537   0.5559   0.5569
  0.5642   0.5689   0.5740   0.5756   0.5803   0.5839   0.5869   0.5925
  0.5951   0.5980   0.6070   0.6097   0.6151   0.6170   0.6206   0.6246
  0.6271   0.6288   0.6320   0.6349   0.6383   0.6414   0.6426   0.6465
  0.6519   0.6524   0.6560   0.6611   0.6652   0.6672   0.6687   0.6709
  0.6755   0.6777   0.6811   0.6840   0.6849   0.6885   0.6895   0.6913
  0.6976   0.6983   0.7020   0.7070   0.7092   0.7109   0.7161   0.7192
  0.7233   0.7276   0.7324   0.7364   0.7413   0.7426   0.7458   0.7496
  0.7531   0.7568   0.7624   0.7728   0.7792   0.7846   0.7870   0.7912
  0.7987   0.8028   0.8076   0.8177   0.8244   0.8315   0.8344   0.8499
  0.8520   0.8571   0.8629   0.8682   0.8741   0.8783   0.8835   0.8890
  0.8968   0.9054   0.9153   0.9242   0.9284   0.9328   0.9446   0.9503
  0.9595   0.9843   0.9910   0.9931   1.0016   1.0104   1.0146   1.0180
  1.0236   1.0287   1.0377   1.0408   1.0452   1.0509   1.0548   1.0672
  1.0741   1.0801   1.0886   1.0919   1.0952   1.1005   1.1084   1.1110
  1.1185   1.1218   1.1295   1.1313   1.1323   1.1362   1.1399   1.1493
  1.1545   1.1555   1.1618   1.1652   1.1704   1.1742   1.1817   1.1865
  1.1896   1.1932   1.1984   1.2061   1.2108   1.2168   1.2228   1.2251
  1.2285   1.2383   1.2426   1.2494   1.2616   1.2648   1.2656   1.2699
  1.2770   1.2815   1.2859   1.2896   1.2958   1.3052   1.3109   1.3159
  1.3263   1.3315   1.3386   1.3432   1.3445   1.3531   1.3566   1.3638
  1.3715   1.3745   1.3854   1.3941   1.4018   1.4078   1.4162   1.4187
  1.4240   1.4303   1.4360   1.4380   1.4466   1.4481   1.4501   1.4668
  1.4726   1.4831   1.4955   1.4989   1.5044   1.5137   1.5162   1.5228
  1.5260   1.5313   1.5393   1.5404   1.5529   1.5559   1.5666   1.5707
  1.5777   1.5796   1.5921   1.5983   1.6028   1.6068   1.6093   1.6142
  1.6209   1.6279   1.6295   1.6382   1.6440   1.6466   1.6499   1.6556
  1.6575   1.6586   1.6613   1.6669   1.6710   1.6725   1.6803   1.6845
  1.6869   1.6931   1.6945   1.6963   1.7012   1.7071   1.7104   1.7146
  1.7168   1.7200   1.7215   1.7282   1.7322   1.7340   1.7390   1.7447
  1.7472   1.7499   1.7540   1.7607   1.7658   1.7709   1.7766   1.7837
  1.7862   1.7896   1.7928   1.7942   1.7971   1.8022   1.8096   1.8186
  1.8225   1.8245   1.8261   1.8289   1.8319   1.8338   1.8432   1.8501
  1.8526   1.8554   1.8573   1.8625   1.8715   1.8775   1.8808   1.8833
  1.8892   1.8915   1.9050   1.9092   1.9116   1.9154   1.9207   1.9268
  1.9313   1.9366   1.9399   1.9502   1.9562   1.9622   1.9671   1.9719
  1.9744   1.9851   1.9924   2.0015   2.0112   2.0201   2.0231   2.0289
  2.0333   2.0376   2.0489   2.0514   2.0574   2.0678   2.0738   2.0856
  2.0929   2.1017   2.1045   2.1115   2.1190   2.1276   2.1310   2.1368
  2.1472   2.1524   2.1574   2.1613   2.1729   2.1767   2.1803   2.1888
  2.1913   2.1975   2.2036   2.2058   2.2147   2.2215   2.2312   2.2403
  2.2444   2.2463   2.2560   2.2598   2.2721   2.2754   2.2792   2.2829
  2.2962   2.2991   2.3066   2.3193   2.3244   2.3300   2.3357   2.3372
  2.3493   2.3501   2.3596   2.3612   2.3732   2.3817   2.3844   2.3922
  2.4021   2.4027   2.4131   2.4152   2.4284   2.4360   2.4494   2.4541
  2.4582   2.4639   2.4816   2.4843   2.4955   2.5024   2.5061   2.5119
  2.5250   2.5311   2.5342   2.5443   2.5471   2.5559   2.5586   2.5710
  2.5855   2.5959   2.5993   2.6153   2.6191   2.6217   2.6285   2.6418
  2.6542   2.6550   2.6721   2.6743   2.6748   2.6801   2.6857   2.6949
  2.6992   2.7024   2.7123   2.7197   2.7253   2.7290   2.7314   2.7318
  2.7360   2.7441   2.7500   2.7579   2.7608   2.7649   2.7688   2.7738
  2.7754   2.7867   2.7973   2.8051   2.8112   2.8261   2.8384   2.8439
  2.8516   2.8824   2.9017   2.9143   2.9197   2.9273   2.9323   2.9619
  2.9656   2.9778   2.9871   3.0033   3.0116   3.0186   3.0267   3.0570
  3.0695   3.0967   3.1023   3.1111   3.1168   3.1229   3.1272   3.1330
  3.1568   3.2003   3.2128   3.2154   3.2238   3.2466   3.2518   3.2809
  3.3839   3.4031   3.4055   3.4069   3.4123   3.4233   3.4444   3.4483
  3.4632   3.4724   3.4882   3.5111   3.5125   3.5228   3.5274   3.5388
  3.5498   3.5766   3.5868   3.6038   3.6192   3.7295   3.7649
 
 Beta MOs
 -- Occupied --
******** -29.8742 -25.7174 -25.7155 -25.7148 -19.0430 -19.0380 -19.0370
-19.0361 -19.0261 -19.0137 -19.0070 -19.0047 -19.0001 -18.9844 -18.9806
-18.9773 -18.9736 -14.3262 -14.3255 -14.2557 -14.2495 -10.2097 -10.2073
-10.2005 -10.1987 -10.1913 -10.1782 -10.1749 -10.1591 -10.1540 -10.1529
-10.1335 -10.1290 -10.1268 -10.1261 -10.1145 -10.1132 -10.1098 -10.1080
-10.1072 -10.1023 -10.0980 -10.0977  -3.3349  -2.1032  -2.0997  -2.0988
 -1.0419  -1.0378  -1.0037  -0.9872  -0.9784  -0.9723  -0.9708  -0.9680
 -0.9669  -0.9234  -0.9066  -0.8899  -0.8851  -0.8722  -0.8645  -0.8181
 -0.8144  -0.7647  -0.7619  -0.7380  -0.7248  -0.7165  -0.7001  -0.6936
 -0.6805  -0.6583  -0.6481  -0.6094  -0.5993  -0.5770  -0.5585  -0.5559
 -0.5251  -0.5227  -0.5130  -0.5058  -0.4935  -0.4853  -0.4811  -0.4709
 -0.4661  -0.4634  -0.4578  -0.4493  -0.4470  -0.4412  -0.4376  -0.4334
 -0.4282  -0.4259  -0.4222  -0.4200  -0.4136  -0.4081  -0.4020  -0.4008
 -0.3925  -0.3901  -0.3863  -0.3834  -0.3818  -0.3781  -0.3770  -0.3745
 -0.3714  -0.3659  -0.3645  -0.3588  -0.3563  -0.3556  -0.3518  -0.3513
 -0.3477  -0.3448  -0.3395  -0.3388  -0.3345  -0.3293  -0.3250  -0.3213
 -0.3179  -0.3140  -0.3123  -0.3052  -0.3017  -0.2966  -0.2938  -0.2926
 -0.2880  -0.2816  -0.2702  -0.2687  -0.2609  -0.2538  -0.2467  -0.2441
 -0.2421  -0.2233  -0.2193  -0.2163  -0.2111  -0.2067  -0.2052  -0.2011
 -0.1963  -0.1937  -0.1915  -0.1843  -0.1815  -0.1773  -0.1757
 -- Virtual --
 -0.0794  -0.0768  -0.0652  -0.0316  -0.0260   0.0120   0.0208   0.0212
  0.0304   0.0416   0.0498   0.0583   0.0643   0.0676   0.0703   0.0837
  0.0883   0.0902   0.0984   0.1027   0.1076   0.1082   0.1114   0.1179
  0.1200   0.1233   0.1265   0.1305   0.1337   0.1382   0.1426   0.1484
  0.1516   0.1562   0.1589   0.1660   0.1672   0.1693   0.1718   0.1728
  0.1805   0.1833   0.1848   0.1932   0.1944   0.1973   0.2032   0.2091
  0.2126   0.2153   0.2171   0.2188   0.2230   0.2319   0.2359   0.2377
  0.2428   0.2460   0.2503   0.2538   0.2597   0.2643   0.2662   0.2712
  0.2770   0.2811   0.2816   0.2863   0.2915   0.2937   0.3101   0.3192
  0.3225   0.3349   0.3422   0.3514   0.3546   0.3591   0.3630   0.3733
  0.3807   0.3857   0.3893   0.3938   0.4019   0.4107   0.4163   0.4205
  0.4260   0.4289   0.4376   0.4398   0.4489   0.4492   0.4563   0.4622
  0.4639   0.4710   0.4739   0.4786   0.4828   0.4944   0.4961   0.5033
  0.5074   0.5136   0.5172   0.5227   0.5299   0.5326   0.5393   0.5410
  0.5444   0.5510   0.5540   0.5567   0.5574   0.5666   0.5698   0.5754
  0.5771   0.5815   0.5846   0.5878   0.5939   0.5967   0.5986   0.6077
  0.6107   0.6163   0.6176   0.6223   0.6255   0.6283   0.6304   0.6327
  0.6365   0.6387   0.6424   0.6432   0.6471   0.6526   0.6540   0.6574
  0.6617   0.6662   0.6684   0.6695   0.6723   0.6770   0.6792   0.6817
  0.6853   0.6862   0.6891   0.6912   0.6926   0.6984   0.6990   0.7032
  0.7079   0.7102   0.7120   0.7185   0.7200   0.7241   0.7284   0.7348
  0.7390   0.7421   0.7437   0.7472   0.7524   0.7562   0.7590   0.7654
  0.7761   0.7804   0.7874   0.7910   0.7924   0.8004   0.8056   0.8099
  0.8230   0.8307   0.8331   0.8396   0.8521   0.8593   0.8619   0.8676
  0.8723   0.8810   0.8878   0.8890   0.8926   0.8992   0.9103   0.9177
  0.9287   0.9307   0.9336   0.9460   0.9569   0.9617   0.9855   0.9923
  0.9970   1.0030   1.0138   1.0185   1.0205   1.0285   1.0303   1.0396
  1.0434   1.0473   1.0538   1.0590   1.0698   1.0768   1.0816   1.0911
  1.0941   1.0974   1.1021   1.1112   1.1123   1.1238   1.1248   1.1309
  1.1331   1.1340   1.1396   1.1451   1.1517   1.1568   1.1572   1.1626
  1.1703   1.1729   1.1770   1.1838   1.1876   1.1945   1.1964   1.2006
  1.2104   1.2137   1.2194   1.2248   1.2274   1.2312   1.2412   1.2448
  1.2526   1.2654   1.2669   1.2719   1.2728   1.2833   1.2861   1.2896
  1.2923   1.3002   1.3082   1.3131   1.3194   1.3279   1.3366   1.3417
  1.3462   1.3477   1.3587   1.3619   1.3696   1.3774   1.3794   1.3908
  1.3964   1.4042   1.4106   1.4190   1.4219   1.4293   1.4334   1.4413
  1.4418   1.4494   1.4541   1.4592   1.4706   1.4854   1.4984   1.5015
  1.5078   1.5151   1.5175   1.5222   1.5289   1.5320   1.5377   1.5455
  1.5530   1.5587   1.5685   1.5727   1.5771   1.5858   1.5891   1.5958
  1.6021   1.6048   1.6121   1.6155   1.6185   1.6238   1.6305   1.6358
  1.6413   1.6464   1.6512   1.6567   1.6588   1.6597   1.6649   1.6670
  1.6708   1.6744   1.6785   1.6816   1.6877   1.6908   1.6952   1.6972
  1.6997   1.7054   1.7090   1.7140   1.7165   1.7195   1.7217   1.7259
  1.7309   1.7345   1.7367   1.7428   1.7482   1.7502   1.7526   1.7573
  1.7647   1.7711   1.7728   1.7798   1.7880   1.7898   1.7924   1.7961
  1.7983   1.7992   1.8048   1.8124   1.8209   1.8245   1.8272   1.8278
  1.8305   1.8349   1.8367   1.8454   1.8522   1.8544   1.8576   1.8601
  1.8683   1.8736   1.8803   1.8823   1.8903   1.8934   1.8966   1.9073
  1.9117   1.9149   1.9197   1.9245   1.9283   1.9343   1.9390   1.9436
  1.9522   1.9608   1.9642   1.9686   1.9760   1.9797   1.9891   1.9940
  2.0041   2.0132   2.0220   2.0248   2.0336   2.0351   2.0421   2.0499
  2.0552   2.0599   2.0703   2.0771   2.0892   2.0974   2.1060   2.1095
  2.1136   2.1213   2.1289   2.1331   2.1392   2.1482   2.1542   2.1591
  2.1651   2.1763   2.1779   2.1811   2.1900   2.1923   2.2017   2.2052
  2.2070   2.2161   2.2229   2.2328   2.2421   2.2472   2.2482   2.2571
  2.2621   2.2757   2.2783   2.2799   2.2871   2.2983   2.3037   2.3085
  2.3205   2.3259   2.3314   2.3376   2.3385   2.3508   2.3510   2.3624
  2.3640   2.3754   2.3836   2.3865   2.3940   2.4038   2.4079   2.4154
  2.4168   2.4303   2.4419   2.4521   2.4564   2.4597   2.4676   2.4832
  2.4878   2.4979   2.5052   2.5080   2.5131   2.5268   2.5335   2.5360
  2.5496   2.5542   2.5571   2.5600   2.5766   2.5870   2.5980   2.6017
  2.6175   2.6201   2.6239   2.6310   2.6451   2.6602   2.6631   2.6733
  2.6769   2.6830   2.6890   2.6929   2.7004   2.7012   2.7074   2.7147
  2.7208   2.7305   2.7324   2.7355   2.7397   2.7448   2.7518   2.7566
  2.7618   2.7680   2.7719   2.7783   2.7800   2.7830   2.7884   2.8059
  2.8110   2.8208   2.8337   2.8468   2.8560   2.8595   2.8927   2.9159
  2.9205   2.9235   2.9355   2.9549   2.9692   2.9784   3.0034   3.0116
  3.0160   3.0342   3.0579   3.0702   3.1063   3.1121   3.1149   3.1236
  3.1281   3.1399   3.1500   3.1600   3.1686   3.1979   3.2129   3.2167
  3.2248   3.2449   3.2500   3.2518   3.3661   3.4060   3.4081   3.4125
  3.4136   3.4238   3.4440   3.4451   3.4594   3.4731   3.4885   3.4973
  3.5176   3.5237   3.5297   3.5435   3.5765   3.5859   3.5869   3.6127
  3.6292   3.7137   3.7374   3.7751
 --------------------------------------------------------------
 
          Ground-State Mulliken Net Atomic Charges

     Atom                 Charge (a.u.)    Spin (a.u.)
  --------------------------------------------------------
      1 N                    -0.059010       0.009912
      2 C                    -0.046859      -0.000037
      3 H                     0.002365      -0.000004
      4 N                    -0.122327      -0.000129
      5 H                     0.088377       0.000044
      6 C                     0.131642       0.000026
      7 O                    -0.469060       0.000022
      8 C                     0.178000       0.000144
      9 O                    -0.405728       0.000732
     10 C                     0.150928       0.013906
     11 C                    -0.023747       0.002175
     12 H                     0.076323      -0.000075
     13 H                     0.058164       0.000227
     14 H                     0.080024       0.001427
     15 C                     0.101378       0.007211
     16 H                     0.014272      -0.000091
     17 H                     0.012240       0.001471
     18 C                    -0.080030       0.006944
     19 C                     0.249898       0.005670
     20 C                     0.048729       0.006241
     21 H                     0.049126       0.001599
     22 H                     0.036321      -0.000033
     23 C                     0.176911      -0.000287
     24 O                    -0.379858       0.000303
     25 N                    -0.129139       0.000065
     26 H                     0.093773      -0.000070
     27 C                     0.140655      -0.000001
     28 O                    -0.460473       0.000015
     29 N                    -0.064098       0.010326
     30 C                     0.144969       0.005883
     31 C                    -0.010381       0.003286
     32 H                     0.068850       0.000615
     33 H                     0.082523       0.000422
     34 H                     0.063510       0.000446
     35 C                     0.110567       0.002301
     36 H                     0.044230       0.000553
     37 H                     0.056390       0.001015
     38 C                    -0.108535       0.000428
     39 H                     0.088886       0.002501
     40 H                     0.033989      -0.000114
     41 C                    -0.031888      -0.000039
     42 H                     0.020274       0.000045
     43 H                     0.013798      -0.000020
     44 C                     0.014433       0.000110
     45 H                     0.009425       0.000001
     46 H                     0.004469       0.000000
     47 C                    -0.033216       0.000018
     48 H                     0.003454       0.000021
     49 C                    -0.034265       0.000147
     50 H                     0.021576      -0.000138
     51 H                     0.029220      -0.000053
     52 C                     0.097978       0.001712
     53 H                     0.054862       0.000550
     54 H                     0.052370       0.001969
     55 C                    -0.061006       0.000013
     56 H                     0.073744       0.001438
     57 H                     0.004613       0.000384
     58 C                     0.017683       0.000221
     59 H                     0.009269       0.000243
     60 H                    -0.001718       0.000048
     61 O                    -0.462150       0.000010
     62 O                    -0.457765       0.000005
     63 O                    -0.490944       0.224719
     64 Fe                    0.552230       4.146187
     65 O                    -0.414467       0.095396
     66 O                    -0.434801       0.165099
     67 O                    -0.372675       0.060570
     68 O                    -0.452423       0.124071
     69 O                    -0.386480       0.022850
     70 O                    -0.369395       0.069355
  --------------------------------------------------------
  Sum of atomic charges =    -3.000000
  Sum of spin   charges =     5.000000

 -----------------------------------------------------------------
                    Cartesian Multipole Moments
 -----------------------------------------------------------------
    Charge (ESU x 10^10)
               -14.4096
    Dipole Moment (Debye)
         X      -4.0752      Y      27.4541      Z      -6.1240
       Tot      28.4224
    Quadrupole Moments (Debye-Ang)
        XX    -499.9108     XY      14.2366     YY    -311.4366
        XZ     -44.9910     YZ     -36.2611     ZZ    -331.1955
    Octopole Moments (Debye-Ang^2)
       XXX    -725.5984    XXY     818.6204    XYY    -183.5025
       YYY     381.1408    XXZ     177.6086    XYZ      57.9659
       YYZ      53.9465    XZZ     190.2822    YZZ     189.4770
       ZZZ     -99.6015
    Hexadecapole Moments (Debye-Ang^3)
      XXXX  -25364.4752   XXXY    3599.3455   XXYY   -5597.5195
      XYYY    1566.4163   YYYY   -8103.0485   XXXZ   -1186.5222
      XXYZ    -637.0559   XYYZ    -235.1692   YYYZ    -405.7979
      XXZZ   -4186.2365   XYZZ     110.9454   YYZZ   -2308.3744
      XZZZ    -360.3514   YZZZ    -264.7954   ZZZZ   -4971.2127
 -----------------------------------------------------------------
 Calculating analytic gradient of the SCF energy
 Gradient of SCF Energy
            1           2           3           4           5           6
    1  -0.0064961  -0.0454853   0.0502510   0.0850796  -0.0619420  -0.0180047
    2   0.0708637  -0.0178714   0.0397909  -0.0298532   0.0335748  -0.0527412
    3   0.0032410   0.0434086  -0.0394562  -0.0051700   0.0707006  -0.1487998
            7           8           9          10          11          12
    1   0.1621027  -0.1116480   0.1173620   0.0240177  -0.0013402   0.0410098
    2  -0.0054790   0.0027614  -0.0235534  -0.0221511  -0.0038530  -0.0054187
    3   0.0857040   0.0787327  -0.1472349   0.0159976  -0.0059025  -0.0195894
           13          14          15          16          17          18
    1  -0.0342971   0.0029068  -0.0018806  -0.0195904   0.0008475  -0.0007326
    2  -0.0300593  -0.0110887  -0.0404594   0.0391739   0.0483829  -0.0214457
    3  -0.0229193   0.0457564  -0.0077231   0.0565891  -0.0572369  -0.0021416
           19          20          21          22          23          24
    1  -0.0086716   0.0436955   0.0026832  -0.0437696  -0.0261235   0.0730157
    2  -0.0271137  -0.0036896   0.0563067  -0.0524780  -0.0819245   0.0973453
    3   0.1827310   0.0455771  -0.0471959  -0.0336034  -0.1078667   0.1319523
           25          26          27          28          29          30
    1  -0.0232990  -0.0368607   0.1367037  -0.1336708  -0.0112732  -0.0250655
    2   0.0285423  -0.0399417  -0.0119536   0.0768105   0.0116178   0.0031623
    3   0.0697735  -0.0673524   0.0543085   0.0795821  -0.0654454   0.0210537
           31          32          33          34          35          36
    1  -0.0003819  -0.0416466   0.0000762   0.0421276   0.0139984  -0.0397956
    2  -0.0069497  -0.0240590   0.0506865  -0.0288968   0.0114920  -0.0121893
    3   0.0029971   0.0091394   0.0265589   0.0170107   0.0014217  -0.0460457
           37          38          39          40          41          42
    1  -0.0148488  -0.0261289   0.0326465   0.0321673   0.0255891  -0.0226100
    2  -0.0261122  -0.0120667   0.0311834   0.0102253   0.0117640  -0.0211467
    3   0.0426265   0.0080881  -0.0529162   0.0489396   0.0037954   0.0421173
           43          44          45          46          47          48
    1  -0.0342598  -0.0026844   0.0500788  -0.0427805  -0.0104994   0.0129376
    2  -0.0116980  -0.0159690   0.0123439   0.0160663  -0.0481097   0.0680755
    3  -0.0439824  -0.0453048   0.0340806   0.0359787  -0.0288120   0.0198848
           49          50          51          52          53          54
    1  -0.0009537  -0.0325569   0.0461754  -0.0236207   0.0362209   0.0170916
    2   0.0128907  -0.0295978  -0.0068640   0.0084106   0.0305794  -0.0466933
    3  -0.0219135   0.0324505   0.0163371   0.0132101  -0.0355863   0.0021892
           55          56          57          58          59          60
    1   0.0353379  -0.0734811   0.0096852  -0.0308741  -0.0016004   0.0582115
    2  -0.0027665   0.0097331   0.0120087   0.0073839  -0.0197077  -0.0067110
    3  -0.0189285  -0.0195348   0.0621544   0.0205182  -0.0625195   0.0131794
           61          62          63          64          65          66
    1  -0.1313576  -0.0295561  -0.0046082   0.0035065  -0.0105448   0.0249540
    2   0.0675569  -0.0624012   0.0039557   0.0024033  -0.0948835  -0.0062105
    3   0.0886329  -0.1371264   0.0275717   0.0025493  -0.0267658   0.0056451
           67          68          69          70
    1  -0.0814882  -0.0269593   0.0215182   0.0913899
    2   0.0046063  -0.0134128   0.1051165  -0.0072939
    3  -0.0381886   0.0086881  -0.1875388  -0.0280721
 Max gradient component =       1.875E-01
 RMS gradient           =       5.130E-02
 Computing fast CPCM-SWIG gradient
 Updating gradient with PCM contributions...
 -- total gradient after adding PCM contribution --
---------------------------------------------------
  Atom         X              Y              Z     
---------------------------------------------------
   1       0.001248       0.001900       0.000707
   2       0.001588       0.000399       0.000528
   3      -0.000074       0.000131      -0.000442
   4       0.001057      -0.001420       0.000899
   5      -0.001147       0.001178       0.002508
   6      -0.001093      -0.000992      -0.003583
   7       0.004854      -0.000731       0.001688
   8      -0.003742       0.000898       0.000690
   9       0.003789      -0.000659      -0.003721
  10       0.000658      -0.003204       0.000799
  11       0.000501      -0.000517       0.000280
  12       0.000168      -0.000030      -0.000257
  13      -0.000142       0.000282      -0.000082
  14      -0.000101      -0.000113       0.000159
  15       0.000427      -0.000181       0.000494
  16      -0.000513       0.000523       0.000777
  17      -0.000225       0.000066      -0.000669
  18       0.000385       0.000549      -0.001112
  19      -0.000611       0.000142       0.005331
  20      -0.000537       0.000088      -0.000505
  21       0.000342       0.000240      -0.000416
  22      -0.000320      -0.000631      -0.000273
  23       0.000830      -0.001871      -0.003149
  24       0.002508       0.002754       0.004032
  25      -0.000938      -0.000455       0.001254
  26      -0.001815      -0.001123      -0.001976
  27       0.003476      -0.000291       0.000877
  28      -0.003429       0.002322       0.003142
  29      -0.001037      -0.000201      -0.001244
  30      -0.001372       0.000266       0.003071
  31       0.000109       0.000130       0.001089
  32      -0.000373      -0.000248      -0.000215
  33      -0.000040       0.000134       0.000029
  34       0.000019      -0.000152      -0.000256
  35      -0.002693      -0.000291      -0.000153
  36       0.000279      -0.000018      -0.000320
  37       0.000604      -0.000305       0.000362
  38       0.001002       0.000364       0.000610
  39       0.000015       0.000492      -0.001117
  40       0.000183      -0.000184       0.000115
  41      -0.000947      -0.000470       0.000119
  42      -0.000019       0.000102       0.000138
  43      -0.000258       0.000224      -0.000526
  44       0.000595      -0.000005       0.000669
  45       0.000437      -0.000015      -0.000004
  46      -0.000576       0.000182      -0.000113
  47      -0.000908       0.000814       0.001331
  48       0.000358       0.000268      -0.000074
  49      -0.000274      -0.000518       0.000764
  50      -0.000096       0.000040      -0.000075
  51       0.000148      -0.000038      -0.000257
  52       0.001920       0.000834       0.000137
  53      -0.000190       0.000287      -0.000292
  54      -0.000532      -0.000425      -0.000059
  55       0.000056       0.000022       0.000194
  56      -0.001154       0.000407      -0.000619
  57       0.000205       0.000087       0.000260
  58       0.000282      -0.000402       0.000237
  59      -0.000169      -0.000550      -0.001018
  60       0.000451       0.000226       0.000106
  61      -0.004900       0.001797       0.001638
  62       0.000606      -0.002595      -0.004717
  63       0.000092      -0.001316       0.000722
  64       0.000466      -0.000906       0.000112
  65      -0.000233      -0.002970       0.000720
  66      -0.000773       0.000101       0.000606
  67      -0.003974       0.001992      -0.001254
  68       0.000207       0.000162      -0.000179
  69       0.000619       0.003254      -0.005245
  70       0.004719       0.000171      -0.003274
---------------------------------------------------
 Number of fixed atoms: 0
 Gradient time:  CPU 22097.61 s  wall 11860.56 s

 *****************************************************
             Starting BFGS Algorithm
 *****************************************************
            LIBOPT3 RUN PARAMETERS

  Geometry Optimization Coordinates :
	Delocalized Natural Internal Coordinates

  Step Length Selection Method :
	Eigenvector Following Algorithm

  Convergence Criteria :
	Max Gradient Component    	3.00000000e-04
	Max Displacement Component	1.20000000e-03
	Absolute Energy Difference	1.00000000e-06

  Initial Hessian :
	Approximate Hessian - Simple Internal Coordinate Scaled

  Type of Verification :
	Verify with final updated Hessian
 *****************************************************

	OPTIMIZATION CYCLE:	1

 Scaling Magnitude of Eigenvalues
 	Minimum: -25.00000000	 Maximum: 25.00000000
 204 Hessian Eigenvalues to form next step
   0.10000000   0.10000000   0.10000000   0.10000000   0.10000000
   0.10000000   0.10000000   0.10000000   0.10000000   0.10000000
   0.10000005   0.10000032   0.10000219   0.10000307   0.10000374
   0.10000402   0.10000597   0.10002003   0.10003036   0.10005314
   0.10015449   0.10025607   0.10030594   0.10034983   0.10038493
   0.10107977   0.10131263   0.10276111   0.10358935   0.10421321
   0.10619408   0.10669006   0.10971170   0.11076015   0.11173708
   0.11328983   0.11440397   0.11580134   0.11774510   0.11878945
   0.11966526   0.11980190   0.12018160   0.12160129   0.12331886
   0.12359263   0.12401307   0.12505487   0.12534107   0.12577985
   0.12653266   0.12698610   0.12709995   0.12755542   0.12902655
   0.13025989   0.13196667   0.13247675   0.13336397   0.13455152
   0.13565955   0.13669398   0.13984264   0.14043957   0.14139234
   0.14170103   0.14215635   0.14456606   0.14517278   0.14568559
   0.14645952   0.15040742   0.15221226   0.15226369   0.15244627
   0.15397826   0.15404879   0.15525637   0.15563485   0.15611569
   0.15725315   0.15847912   0.15909027   0.16150451   0.16505542
   0.17448825   0.17576959   0.17663377   0.17731762   0.17761711
   0.17779420   0.17889609   0.17939913   0.18039863   0.18153545
   0.18343479   0.18437820   0.18562575   0.18599229   0.18932968
   0.18981460   0.19233050   0.19672713   0.19747997   0.19801475
   0.19835928   0.19866912   0.19926114   0.19960883   0.19966355
   0.19996460   0.19998044   0.19998187   0.19999245   0.19999936
   0.19999967   0.20000000   0.20000000   0.20000000   0.20000000
   0.20000000   0.20000000   0.20000000   0.20000000   0.20000000
   0.20000000   0.21612941   0.23468630   0.25728480   0.28552185
   0.40109049   0.42227718   0.42867047   0.43324082   0.43478617
   0.43665737   0.45639957   0.47300115   0.48188741   0.48415961
   0.48501347   0.49060644   0.49607863   0.49765261   0.49903752
   0.49953398   0.49987080   0.49994629   0.49999999   0.50000000
   0.50000000   0.50000000   0.50000000   0.50000000   0.50000000
   0.50000000   0.50000000   0.50000000   0.50000000   0.50000000
   0.50000000   0.50000000   0.50000000   0.50000000   0.50000000
   0.50000000   0.50000000   0.50000000   0.50000000   0.50000000
   0.50000000   0.50000000   0.50000000   0.50000000   0.50000000
   0.50000000   0.50000000   0.50000000   0.50000000   0.50000000
   0.50000000   0.50000000   0.50000000   0.50000000   0.50000000
   0.50000000   0.50000000   0.50000000   0.50000000   0.50000000
   0.50000000   0.50000000   0.50000000   0.50000000   0.50000000
   0.50000000   0.50000000   0.50000000   0.50000000   0.50000000
   0.50845533   0.51181404   0.51509354   0.51962665

 Minimum Search taking a RFO step
 Searching for Lambda that minimizes along all modes
	Value of Lambda   -0.00085334
	Norm  of Stepsize  0.05204316
	RMS   of Stepsize  0.00364375

	Performing Iterative Coordinate Back-Transformation

	  Starting from Previous Position

	  iter:	0	rms: 1.1033987615e-02	maxdev: 6.3703779767e-02
	  iter:	1	rms: 4.8504530753e-05	maxdev: 3.7804719426e-04
	  iter:	2	rms: 1.6433031950e-09	maxdev: 1.3573433748e-08	 Success!

	Finished Iterative Coordinate Back-Transformation
 Adding empirical dispersion correction 
 ----------------------------------------------------------------
 Doing -D3(BJ) with
 s6  =   1.00000e+00
 s8  =   2.23820e+00
 a1  =   4.52900e-01
 a2  =   4.65500e+00
 -D3 energy without 3body term =     -1.2226945560e-01 hartrees
 ----------------------------------------------------------------
             Standard Nuclear Orientation (Angstroms)
    I     Atom           X                Y                Z
 ----------------------------------------------------------------
    1      N      -2.6678304815     2.6244858398     0.7751608364
    2      C      -4.0999843097    -1.7891785719    -0.7374423843
    3      H      -4.8100397715    -2.3877739661    -0.1378922818
    4      N      -2.7486788365    -2.0643047211    -0.2745361206
    5      H      -2.1555463664    -2.4152963683    -1.0296621431
    6      C      -4.2003843496    -2.2712779988    -2.2162285062
    7      O      -5.3378857308    -2.1614200689    -2.7519180473
    8      C      -2.3562385861    -2.1252455310     1.0157968178
    9      O      -3.1105507140    -1.8239655720     1.9651189910
   10      C      -1.8733780152     3.6278461751     1.1629017331
   11      C      -2.3349570862     5.0573849540     1.0414289944
   12      H      -3.3153105707     5.2166141255     1.5142974832
   13      H      -1.5900791760     5.6972202612     1.5302427558
   14      H      -2.4148046358     5.3516246112    -0.0175267834
   15      C      -0.9340901642    -2.6144391994     1.2402150310
   16      H      -0.5707630561    -3.1824731855     0.3729331565
   17      H      -0.9474365022    -3.2697839711     2.1235121397
   18      C       0.0883851967    -1.4769725875     1.4863704194
   19      C      -0.1465805650    -0.7755273789     2.8592799552
   20      C       1.5128815397    -2.0810832549     1.6520459910
   21      H       1.4577816140    -2.9102862799     2.3776638328
   22      H       2.1607241039    -1.3101985558     2.0980169394
   23      C       2.1911114165    -2.5992340888     0.3898028113
   24      O       1.6049113438    -3.2183046641    -0.5208366272
   25      N       3.5187393415    -2.3498237816     0.3649572449
   26      H       3.9995907012    -1.9206713742     1.1602105466
   27      C       5.8848366909    -2.7463762193     0.0003094685
   28      O       6.8071804228    -3.2972619095    -0.6588431171
   29      N       1.9365099722     2.1674281325    -0.7131228261
   30      C       0.8753025764     2.2538101217    -1.5266041967
   31      C       1.0579213550     2.5252561316    -2.9942295956
   32      H       1.9839860496     3.0697724768    -3.2170911003
   33      H       1.0674305085     1.5730478737    -3.5502639791
   34      H       0.1949925056     3.1097105554    -3.3418983782
   35      C       3.2667374413     1.7325653884    -1.1593648686
   36      H       3.9597414246     1.9776184642    -0.3421353582
   37      H       3.5633972044     2.3162730912    -2.0423882568
   38      C       3.2267787649     0.2295076444    -1.4389476895
   39      H       2.7253948903    -0.2383347867    -0.5816056564
   40      H       2.5816190457     0.0547563444    -2.3182437742
   41      C       4.5830799593    -0.4329873924    -1.6810826739
   42      H       5.0704968234     0.0400579591    -2.5517213638
   43      H       5.2463846139    -0.2555109874    -0.8150664542
   44      C       4.4487692213    -1.9480538963    -1.9291227778
   45      H       3.5217325418    -2.1486389336    -2.4934922504
   46      H       5.2886694279    -2.3115274682    -2.5417291727
   47      C       4.4641749002    -2.7989179382    -0.6413688494
   48      H       4.2402963297    -3.8428288402    -0.9179510393
   49      C      -4.0464623553     2.1316702737    -1.2550991603
   50      H      -3.3855988388     2.7508143752    -1.8858929159
   51      H      -5.0779651264     2.3062705456    -1.6120985282
   52      C      -3.9960111660     2.6841183420     0.1782089840
   53      H      -4.6771377026     2.1211362711     0.8371672569
   54      H      -4.3219009294     3.7317632133     0.1806983496
   55      C      -3.6851208729     0.6484842985    -1.4464532849
   56      H      -2.6210231641     0.5005264020    -1.2157217395
   57      H      -3.8331142491     0.4061764667    -2.5145021303
   58      C      -4.5185871920    -0.3132255609    -0.5986280011
   59      H      -4.4406598755    -0.0423941082     0.4640379632
   60      H      -5.5807924712    -0.2500087962    -0.8898554953
   61      O      -3.1329775845    -2.7117710052    -2.7442418977
   62      O       5.9783279209    -2.1267639132     1.1059425078
   63      O       0.0451389307    -0.5410864483     0.4494516672
   64      Fe     -0.2073536312     1.2903437010     0.9457172977
   65      O      -0.0700094170     0.5278472618     2.8167367758
   66      O      -2.1851832049     1.3644252823     0.9402570149
   67      O      -0.7141501935     3.3443330669     1.6132168621
   68      O       1.6843239114     1.8979731434     0.6082895016
   69      O      -0.3020310681    -1.4361300960     3.8987002582
   70      O      -0.2938701297     2.1089523256    -1.0411262616
 ----------------------------------------------------------------
 Nuclear Repulsion Energy =        6046.82699472 hartrees
 There are      164 alpha and      159 beta electrons
No default van der Waals radius is available for Z = 26
	Found R = 2.4400 A in the $van_der_waals section
 Discretize the solute cavity surface with Lebedev spheres
	Using 110 Lebedev grid points for each H atom
	Using 194 Lebedev grid points for other atoms
	Atomic van der Waals radii (Bondi set) will be scaled by 1.20
 Using smooth SwiG surface discretization
 Remove points where switching function is < 1.0e-08
 Keep 4152 surface tesserae and discard 6908 interior tesserae
 Molecular Surface Area = 533.842 Angst**2

 Applying Cartesian multipole field
    Component          Value
    ---------          -----
     (2,0,0)        1.00000E-12
     (0,2,0)        2.00000E-12
     (0,0,2)       -3.00000E-11
 Nucleus-field energy     =-6.5287835062e-08 hartrees
 Read the previous MOs as SCF guess

 -----------------------------------------------------------------------
  General SCF calculation program by
  Eric Jon Sundstrom, Paul Horn, Yuezhi Mao, Dmitri Zuev, Alec White,
  David Stuck, Shaama M.S., Shane Yost, Joonho Lee, David Small,
  Daniel Levine, Susi Lehtola, Hugh Burton, Evgeny Epifanovsky,
  Bang C. Huynh
 -----------------------------------------------------------------------
 Requested basis set is non-standard
 There are 339 shells and 739 basis functions
 Exchange:     0.1000 Hartree-Fock + 0.9000 TPSS
 Correlation:  1.0000 TPSS
 Using SG-2 standard quadrature grid
 Dispersion:   Grimme D3
 A cutoff of  1.0D-12 yielded  45604 shell pairs
 There are    198552 function pairs (    220187 Cartesian)
 Smallest overlap matrix eigenvalue = 2.96E-04
 A unrestricted SCF calculation will be
 performed using DIIS
 SCF converges when DIIS error is below 1.0e-08
 ---------------------------------------
  Cycle       Energy         DIIS error
 ---------------------------------------
    1   -3317.4508144804      2.39e-04  
    2   -3317.9459680031      3.73e-04  
    3   -3317.9997901363      1.59e-04  
    4   -3318.0076467210      9.59e-05  
    5   -3318.0115996451      6.38e-05  
    6   -3318.0134310193      5.27e-05  
    7   -3318.0143265638      2.49e-05  
    8   -3318.0145540379      7.75e-06  
    9   -3318.0145784535      3.76e-06  
   10   -3318.0145818221      1.31e-06  
   11   -3318.0145822274      5.85e-07  
   12   -3318.0145823213      2.77e-07  
   13   -3318.0145823448      1.39e-07  
   14   -3318.0145823504      5.53e-08  
   15   -3318.0145823510      2.77e-08  
   16   -3318.0145823513      1.38e-08  
   17   -3318.0145823513      5.95e-09  Convergence criterion met
 ---------------------------------------
 SCF time:   CPU 35573.76s  wall 17843.00s 
<S^2> =          8.757128191

************** Final PCM Free Energy Summary **************
 G_electrostatic  =      -0.52613843 hartree =    -330.15684837 kcal/mol
 G_cavitation     =       0.00000000 hartree =       0.00000000 kcal/mol
 G_dispersion     =       0.00000000 hartree =       0.00000000 kcal/mol
 G_repulsion      =       0.00000000 hartree =       0.00000000 kcal/mol
 --------------------------------------------------
 Non-electrostatic Free Energy =       0.00000000 hartree =       0.00000000 kcal/mol
 Total                         =      -0.52613843 hartree =    -330.15684837 kcal/mol
 --------------------------------------------------
 SCF Energy (H0 + V/2)                       =   -3318.01458235 
 Solute Internal Energy (H0)                 =   -3317.48844392 
 Total Free Energy (H0 + V/2 + non-elec)     =   -3318.01458235 hartree
                                             = -2082085.57534155 kcal/mol
***********************************************************

 SCF   energy in the final basis set =    -3318.0145823513
 Total energy in the final basis set =    -3318.0145823513
 
 --------------------------------------------------------------
 
                    Orbital Energies (a.u.)
 --------------------------------------------------------------
 
 Alpha MOs
 -- Occupied --
******** -29.9551 -25.7862 -25.7832 -25.7820 -19.0459 -19.0437 -19.0414
-19.0387 -19.0303 -19.0141 -19.0082 -19.0074 -19.0051 -18.9860 -18.9821
-18.9788 -18.9750 -14.3270 -14.3262 -14.2560 -14.2496 -10.2104 -10.2081
-10.2014 -10.1999 -10.1920 -10.1799 -10.1765 -10.1597 -10.1543 -10.1533
-10.1341 -10.1295 -10.1274 -10.1266 -10.1146 -10.1140 -10.1100 -10.1084
-10.1075 -10.1031 -10.0984 -10.0981  -3.5371  -2.3141  -2.3084  -2.3059
 -1.0456  -1.0406  -1.0050  -0.9846  -0.9760  -0.9745  -0.9708  -0.9702
 -0.9657  -0.9306  -0.9141  -0.8894  -0.8844  -0.8709  -0.8633  -0.8217
 -0.8184  -0.7649  -0.7620  -0.7402  -0.7253  -0.7174  -0.7009  -0.6945
 -0.6810  -0.6585  -0.6481  -0.6102  -0.5995  -0.5785  -0.5587  -0.5567
 -0.5250  -0.5241  -0.5170  -0.5086  -0.4959  -0.4868  -0.4845  -0.4743
 -0.4728  -0.4667  -0.4601  -0.4555  -0.4479  -0.4437  -0.4388  -0.4346
 -0.4312  -0.4269  -0.4230  -0.4217  -0.4145  -0.4105  -0.4033  -0.4028
 -0.3990  -0.3925  -0.3916  -0.3866  -0.3834  -0.3814  -0.3798  -0.3761
 -0.3743  -0.3712  -0.3683  -0.3627  -0.3609  -0.3592  -0.3541  -0.3532
 -0.3511  -0.3497  -0.3477  -0.3438  -0.3430  -0.3384  -0.3367  -0.3346
 -0.3313  -0.3286  -0.3248  -0.3216  -0.3200  -0.3147  -0.3120  -0.3061
 -0.3036  -0.3017  -0.2954  -0.2918  -0.2915  -0.2853  -0.2808  -0.2725
 -0.2573  -0.2551  -0.2518  -0.2342  -0.2246  -0.2217  -0.2169  -0.2138
 -0.2091  -0.2062  -0.2024  -0.2014  -0.1971  -0.1949  -0.1922  -0.1850
 -0.1849  -0.1816  -0.1766  -0.1689
 -- Virtual --
  0.0058   0.0146   0.0186   0.0281   0.0393   0.0468   0.0573   0.0619
  0.0657   0.0686   0.0824   0.0876   0.0895   0.0979   0.1009   0.1065
  0.1077   0.1100   0.1168   0.1195   0.1222   0.1255   0.1292   0.1326
  0.1376   0.1417   0.1469   0.1508   0.1556   0.1581   0.1650   0.1659
  0.1685   0.1708   0.1720   0.1790   0.1820   0.1839   0.1897   0.1916
[...]
    3   0.0009298   0.0407046  -0.0359143  -0.0041485   0.0680717  -0.1476697
            7           8           9          10          11          12
    1   0.1536357  -0.1112639   0.1206663   0.0207728  -0.0010488   0.0407792
    2  -0.0063670  -0.0031048  -0.0145875  -0.0188590  -0.0037700  -0.0066813
    3   0.0912606   0.0737683  -0.1399554   0.0156852  -0.0060721  -0.0190785
           13          14          15          16          17          18
    1  -0.0348567   0.0023001  -0.0019035  -0.0210131   0.0019135  -0.0001088
    2  -0.0299256  -0.0100948  -0.0394005   0.0395350   0.0471522  -0.0222707
    3  -0.0225002   0.0461835  -0.0062496   0.0546653  -0.0576079  -0.0016770
           19          20          21          22          23          24
    1  -0.0097310   0.0427011   0.0032824  -0.0435898  -0.0249847   0.0692379
    2  -0.0270461  -0.0032088   0.0564674  -0.0520432  -0.0830976   0.0985780
    3   0.1771733   0.0451247  -0.0466450  -0.0339276  -0.1028531   0.1261415
           25          26          27          28          29          30
    1  -0.0227073  -0.0357699   0.1334465  -0.1333189  -0.0133083  -0.0214161
    2   0.0259774  -0.0378651  -0.0076121   0.0691141   0.0109878   0.0043433
    3   0.0683801  -0.0645026   0.0527512   0.0761218  -0.0646614   0.0179944
           31          32          33          34          35          36
    1  -0.0006444  -0.0415601   0.0013930   0.0431779   0.0144189  -0.0408177
    2  -0.0075994  -0.0236408   0.0524823  -0.0290563   0.0123221  -0.0155918
    3   0.0028919   0.0114569   0.0256239   0.0162980   0.0006834  -0.0438893
           37          38          39          40          41          42
    1  -0.0124051  -0.0268087   0.0294681   0.0347520   0.0264100  -0.0208648
    2  -0.0245058  -0.0115115   0.0284443   0.0132694   0.0112455  -0.0204897
    3   0.0444073   0.0082429  -0.0545674   0.0475313   0.0029028   0.0434452
           43          44          45          46          47          48
    1  -0.0357471  -0.0023395   0.0498702  -0.0427352  -0.0094695   0.0116035
    2  -0.0128935  -0.0167882   0.0136239   0.0164398  -0.0492230   0.0686409
    3  -0.0427813  -0.0448704   0.0337804   0.0352785  -0.0271049   0.0180292
           49          50          51          52          53          54
    1  -0.0010434  -0.0318884   0.0461620  -0.0243052   0.0361632   0.0175329
    2   0.0135107  -0.0310389  -0.0063807   0.0074180   0.0322640  -0.0464106
    3  -0.0212656   0.0313321   0.0163923   0.0134578  -0.0348048   0.0006551
           55          56          57          58          59          60
    1   0.0357521  -0.0716867   0.0071758  -0.0323779   0.0007123   0.0575765
    2  -0.0015247   0.0089399   0.0103705   0.0064322  -0.0176158  -0.0061122
    3  -0.0181320  -0.0220963   0.0627814   0.0192268  -0.0622470   0.0149015
           61          62          63          64          65          66
    1  -0.1314048  -0.0260464  -0.0053066   0.0042494  -0.0122175   0.0249194
    2   0.0606146  -0.0594087   0.0044592   0.0042247  -0.0917194  -0.0068282
    3   0.0828127  -0.1326375   0.0269500   0.0039205  -0.0274136   0.0049938
           67          68          69          70
    1  -0.0768770  -0.0260513   0.0245898   0.0858050
    2   0.0036915  -0.0138604   0.1014725  -0.0085088
    3  -0.0362005   0.0094733  -0.1818681  -0.0290831
 Max gradient component =       1.819E-01
 RMS gradient           =       5.013E-02
 Computing fast CPCM-SWIG gradient
 Updating gradient with PCM contributions...
 -- total gradient after adding PCM contribution --
---------------------------------------------------
  Atom         X              Y              Z     
---------------------------------------------------
   1       0.000011      -0.000004      -0.000074
   2      -0.000040      -0.000020       0.000040
   3       0.000015       0.000010       0.000018
   4       0.000005       0.000034      -0.000033
   5      -0.000000      -0.000019       0.000026
   6       0.000013      -0.000007      -0.000021
   7      -0.000006      -0.000000       0.000009
   8       0.000005       0.000016       0.000008
   9      -0.000013      -0.000001       0.000023
  10      -0.000020       0.000000       0.000032
  11      -0.000004      -0.000000      -0.000016
  12       0.000009       0.000010      -0.000005
  13       0.000007       0.000010      -0.000025
  14      -0.000003       0.000001      -0.000016
  15       0.000018      -0.000022       0.000017
  16      -0.000007       0.000003       0.000015
  17      -0.000004       0.000015       0.000006
  18       0.000013       0.000076       0.000082
  19       0.000032      -0.000030      -0.000056
  20      -0.000002       0.000004       0.000016
  21      -0.000005      -0.000001      -0.000011
  22       0.000005      -0.000007       0.000026
  23      -0.000005       0.000018       0.000007
  24       0.000003      -0.000020       0.000018
  25       0.000040       0.000050      -0.000015
  26      -0.000030      -0.000013       0.000010
  27       0.000024       0.000023       0.000031
  28       0.000002       0.000004      -0.000002
  29       0.000017       0.000087       0.000006
  30      -0.000009       0.000012      -0.000026
  31      -0.000002      -0.000029       0.000016
  32       0.000001      -0.000014      -0.000019
  33      -0.000006      -0.000012      -0.000007
  34       0.000004       0.000000      -0.000012
  35       0.000009      -0.000017      -0.000012
  36       0.000000      -0.000002      -0.000006
  37      -0.000014      -0.000019      -0.000015
  38      -0.000003      -0.000000       0.000021
  39       0.000007       0.000001      -0.000004
  40       0.000004      -0.000007      -0.000006
  41      -0.000026      -0.000017       0.000002
  42       0.000005      -0.000004       0.000000
  43       0.000009       0.000003      -0.000013
  44      -0.000028      -0.000025       0.000012
  45       0.000008      -0.000004      -0.000008
  46       0.000004      -0.000001       0.000011
  47       0.000011      -0.000050      -0.000017
  48      -0.000031       0.000012       0.000019
  49       0.000003      -0.000005       0.000000
  50       0.000012      -0.000013      -0.000014
  51      -0.000004      -0.000001       0.000006
  52      -0.000016       0.000060       0.000012
  53       0.000016      -0.000022      -0.000009
  54       0.000006      -0.000008      -0.000021
  55      -0.000031      -0.000019      -0.000012
  56      -0.000004       0.000003       0.000010
  57       0.000014      -0.000000       0.000006
  58       0.000013       0.000007       0.000008
  59      -0.000001       0.000000      -0.000003
  60       0.000001       0.000002       0.000003
  61      -0.000005      -0.000011       0.000015
  62      -0.000007      -0.000015      -0.000002
  63      -0.000050       0.000025      -0.000049
  64      -0.000064      -0.000074       0.000056
  65      -0.000026       0.000034       0.000022
  66       0.000058      -0.000002       0.000006
  67       0.000008       0.000053      -0.000011
  68       0.000045      -0.000054      -0.000035
  69      -0.000001       0.000015       0.000007
  70       0.000010      -0.000018      -0.000051
---------------------------------------------------
 Number of fixed atoms: 0
 Gradient time:  CPU 22181.90 s  wall 11120.87 s

     Step 24	:
        Energy is -3318.0148561536
                            Maximum         Tolerance       Converged?
         Gradient           4.25604486e-05	3.00000000e-04	true
         Displacement       1.40492722e-03	1.20000000e-03	false
         Energy change      3.96751602e-07	1.00000000e-06	true

	 Optimization Converged in 24 cycles

 *****************************************************
             End of BFGS Algorithm
 *****************************************************
		----------------------------------
		   Verification of Optimization
		----------------------------------

 Eigenvalues of Hessian in Optimization Verification
   0.00180413   0.00526805   0.01162141   0.02909255   0.04259587
   0.06158977   0.09983645   0.10000012   0.10000037   0.10000082
   0.10000166   0.10000225   0.10000272   0.10000444   0.10000452
   0.10001129   0.10002075   0.10003452   0.10005336   0.10007882
   0.10012154   0.10015095   0.10022924   0.10024055   0.10048260
   0.10076289   0.10100686   0.10178114   0.10198605   0.10319521
   0.10378504   0.10514883   0.10544683   0.10858034   0.11027373
   0.11049664   0.11280029   0.11331924   0.11561083   0.11709959
   0.11855012   0.11958950   0.11983104   0.12074290   0.12155291
   0.12262574   0.12356450   0.12408328   0.12517068   0.12539241
   0.12564124   0.12610611   0.12680264   0.12730773   0.12842272
   0.12988760   0.13163259   0.13211841   0.13323508   0.13351496
   0.13481279   0.13681728   0.13871938   0.14043655   0.14116841
   0.14141296   0.14174622   0.14423940   0.14454032   0.14507864
   0.14629562   0.15025334   0.15156679   0.15197266   0.15226662
   0.15318702   0.15401115   0.15430408   0.15541733   0.15606060
   0.15657980   0.15796467   0.15870524   0.16096625   0.16512101
   0.17395760   0.17572939   0.17643066   0.17673446   0.17758299
   0.17764906   0.17879839   0.17992218   0.18084558   0.18191071
   0.18313238   0.18420115   0.18543367   0.18650168   0.18790602
   0.18882009   0.19044036   0.19207847   0.19565630   0.19728153
   0.19813401   0.19841842   0.19873993   0.19945283   0.19962214
   0.19984502   0.19987851   0.19994256   0.19995912   0.19998549
   0.19999800   0.20000005   0.20001093   0.20006531   0.20047112
   0.20211061   0.20447033   0.21107845   0.21638437   0.21685476
   0.23042834   0.24937245   0.27665256   0.32177596   0.33464884
   0.35725591   0.37041413   0.37578284   0.40362700   0.41911335
   0.43055746   0.44492560   0.45104306   0.46144964   0.46582651
   0.46863383   0.47587169   0.48005525   0.48423038   0.48592103
   0.48968070   0.49265850   0.49354049   0.49898629   0.49966030
   0.49986657   0.49991926   0.49996044   0.49998001   0.49999515
   0.49999947   0.50000000   0.50000000   0.50000000   0.50000000
   0.50000000   0.50000000   0.50000000   0.50000000   0.50000000
   0.50000000   0.50000000   0.50000000   0.50000000   0.50000000
   0.50000000   0.50000000   0.50000000   0.50000000   0.50000000
   0.50000000   0.50000000   0.50000000   0.50000000   0.50000000
   0.50000000   0.50000000   0.50000000   0.50000028   0.50000061
   0.50000127   0.50000182   0.50000340   0.50001047   0.50001587
   0.50010694   0.50027898   0.50065077   0.50305076   0.50375105
   0.51023916   0.51211304   0.51508005   0.51755102   0.52476275
   0.54777805   0.56911337   0.57576580   0.83892922

 Found a minimum
		---------------------------------
		       End of Verification
		---------------------------------

 Final energy is -3318.014856153593

	******************************
	**  OPTIMIZATION CONVERGED  **
	******************************
 Adding empirical dispersion correction 
 ----------------------------------------------------------------
 Doing -D3(BJ) with
 s6  =   1.00000
 s8  =   2.23820
 a1  =   0.45290
 a2  =   4.65500
 -D3 energy without 3body term =     -0.1227872083 hartrees
 ----------------------------------------------------------------
             Standard Nuclear Orientation (Angstroms)
    I     Atom           X                Y                Z
 ----------------------------------------------------------------
    1      N      -2.6581977669     2.6191649934     0.8392384488
    2      C      -4.0282680878    -1.7550352983    -0.8118578260
    3      H      -4.7468396795    -2.3873260377    -0.2589044671
    4      N      -2.6893870481    -2.0228449598    -0.3081074342
    5      H      -2.0675388478    -2.3428510563    -1.0550941206
    6      C      -4.0646334993    -2.1788552052    -2.3107259490
    7      O      -5.1788877027    -2.0582697217    -2.8871129758
    8      C      -2.3523012457    -2.1441125684     0.9928354752
    9      O      -3.1503449617    -1.8961203628     1.9199782827
   10      C      -1.8410282438     3.6178608466     1.1862809495
   11      C      -2.2773998004     5.0513752127     1.0307002570
   12      H      -3.2575293401     5.2383238858     1.4935902430
   13      H      -1.5238031831     5.6882939736     1.5101198899
   14      H      -2.3433813032     5.3223959684    -0.0354930075
   15      C      -0.9379281110    -2.6307882610     1.2595401033
   16      H      -0.5563640252    -3.2139521626     0.4098144114
   17      H      -0.9713590740    -3.2677411685     2.1555433387
   18      C       0.0828977430    -1.4925314578     1.5121190653
   19      C      -0.1601964702    -0.7916673156     2.8810034599
   20      C       1.5059707612    -2.1013981512     1.6885940983
   21      H       1.4397595454    -2.9355048676     2.4077560354
   22      H       2.1513107554    -1.3336558319     2.1436134597
   23      C       2.1904482885    -2.6121028231     0.4272439351
   24      O       1.6165834275    -3.2568548553    -0.4710032265
   25      N       3.5077124725    -2.3185987230     0.3842560228
   26      H       3.9913548125    -1.8920771556     1.1816026282
   27      C       5.8815124096    -2.6828048018     0.0348467372
   28      O       6.8214206718    -3.1954951674    -0.6261550522
   29      N       1.8729949950     2.1351663753    -0.7573777937
   30      C       0.7873136853     2.1882149679    -1.5385235633
   31      C       0.9152176133     2.4174813191    -3.0186765535
   32      H       1.8342461866     2.9513729961    -3.2910417754
   33      H       0.8999569607     1.4496567061    -3.5469114425
   34      H       0.0424663747     2.9974610933    -3.3491064695
   35      C       3.2024828402     1.7239624154    -1.2315560246
   36      H       3.9133371808     2.0287423476    -0.4507252951
   37      H       3.4433923409     2.2744539293    -2.1518750098
   38      C       3.1938679247     0.2087146756    -1.4383148331
   39      H       2.7465257632    -0.2275836356    -0.5356873793
   40      H       2.5132654263    -0.0227840975    -2.2769286352
   41      C       4.5542659250    -0.4346104586    -1.7116782491
   42      H       5.0023698490     0.0234185440    -2.6110542865
   43      H       5.2435143380    -0.2252969349    -0.8731738349
   44      C       4.4380381143    -1.9575864127    -1.9182441609
   45      H       3.5134024236    -2.1826986313    -2.4772400119
   46      H       5.2855095475    -2.3268193560    -2.5170107343
   47      C       4.4635935897    -2.7760286643    -0.6101208968
   48      H       4.2569205882    -3.8306947456    -0.8594959925
   49      C      -4.0288682684     2.1787352927    -1.2086504377
   50      H      -3.3794801906     2.8277738397    -1.8205036943
   51      H      -5.0643723820     2.3412521590    -1.5602612483
   52      C      -3.9866512520     2.6874302470     0.2408418214
   53      H      -4.6570219869     2.0950748978     0.8839563985
   54      H      -4.3201847877     3.7323477402     0.2771515038
   55      C      -3.6332849288     0.7097241993    -1.4332180665
   56      H      -2.5733924758     0.5783314940    -1.1725713807
   57      H      -3.7447344787     0.4952061889    -2.5117320917
   58      C      -4.4750979867    -0.2906260914    -0.6389535078
   59      H      -4.4311129840    -0.0524689355     0.4342647056
   60      H      -5.5297494498    -0.2355392666    -0.9590016833
   61      O      -2.9758228865    -2.5887120577    -2.8158737723
   62      O       5.9583090248    -2.0754141437     1.1469548961
   63      O       0.0511110685    -0.5553748704     0.4762650874
   64      Fe     -0.2112845495     1.2749208239     0.9750594419
   65      O      -0.0592163614     0.5096099407     2.8444966852
   66      O      -2.1904811839     1.3556258912     1.0232011200
   67      O      -0.6813638153     3.3245814337     1.6293539708
   68      O       1.6666687940     1.8952763173     0.5763645604
   69      O      -0.3436364844    -1.4499233531     3.9149238323
   70      O      -0.3637359985     2.0515345915    -1.0087940815
 ----------------------------------------------------------------
 Nuclear Repulsion Energy =        6065.09307887 hartrees
 There are      164 alpha and      159 beta electrons

Z-matrix Print:
$molecule
-3 6
Fe
O  1 1.915106
C  2 1.397235 1 116.810896
C  3 1.549681 2 110.905885 1 126.269413 0
H  4 1.098956 3 106.683093 2 69.604816 0
H  4 1.099840 3 108.217257 2 -172.699832 0
C  4 1.519354 3 113.988385 2 -53.202143 0
O  7 1.248186 4 121.900026 3 -85.513939 0
N  7 1.349365 4 115.504116 3 95.611796 0
H  9 1.023273 7 121.593230 4 6.837853 0
C  9 1.455366 7 125.455197 4 171.097898 0
H  11 1.105393 9 108.640276 7 -43.841158 0
C  11 1.540794 9 113.755794 7 75.711594 0
H  13 1.100205 11 107.674320 9 -58.404461 0
H  13 1.103519 11 106.981085 9 -174.370533 0
C  13 1.529773 11 113.806916 9 63.869193 0
H  16 1.099351 13 109.225114 11 -54.676444 0
H  16 1.105274 13 108.918871 11 62.800920 0
C  16 1.537827 13 114.034499 11 -177.043581 0
H  19 1.103322 16 109.241526 13 -179.642780 0
H  19 1.105582 16 109.566898 13 -63.009250 0
C  19 1.536744 16 116.543692 13 57.403227 0
H  22 1.097459 19 109.756977 16 -178.094705 0
H  22 1.101761 19 110.847792 16 -58.977257 0
N  22 1.458605 19 113.358813 16 61.151246 0
C  25 1.336263 22 128.942130 19 111.350296 0
O  26 1.275597 25 118.315720 22 -176.087508 0
O  25 1.359828 22 114.346267 19 -66.464965 0
C  26 1.506515 25 120.478086 22 2.798977 0
H  29 1.097003 26 107.959828 25 171.645581 0
H  29 1.099941 26 112.109119 25 51.274860 0
H  29 1.102077 26 110.563961 25 -69.526789 0
C  3 1.556968 2 110.262833 1 1.904636 0
O  33 1.239332 3 121.164524 2 170.682820 0
O  33 1.305700 3 114.328334 2 -13.811426 0
C  3 1.557883 2 111.524524 1 -111.455202 0
H  36 1.101333 3 108.035731 2 72.802478 0
H  36 1.103319 3 108.329755 2 -171.581247 0
C  36 1.523264 3 116.596046 2 -49.243556 0
O  39 1.245742 36 124.305139 3 -41.580404 0
N  39 1.350251 36 113.070086 3 139.670760 0
H  41 1.025472 39 121.719606 36 6.614114 0
C  41 1.453181 39 126.518141 36 173.433586 0
H  43 1.103278 41 109.411829 39 -39.944130 0
C  43 1.543272 41 113.714787 39 81.148481 0
H  45 1.101391 43 105.680925 41 173.027714 0
H  45 1.103677 43 109.573503 41 -71.408016 0
C  45 1.541309 43 114.152921 41 51.705869 0
H  48 1.104294 45 109.346876 43 153.137734 0
H  48 1.105425 45 109.619726 43 36.572258 0
C  48 1.529470 45 111.869725 43 -85.521751 0
H  51 1.097819 48 110.012613 45 59.641796 0
H  51 1.104574 48 108.917375 45 -57.161233 0
C  51 1.529313 48 115.842868 45 -179.473486 0
H  54 1.099046 51 111.990864 48 -53.627125 0
H  54 1.099120 51 112.598548 48 68.727564 0
N  54 1.470194 51 108.398966 48 -170.403266 0
C  57 1.338547 54 123.802253 51 -73.814023 0
O  58 1.274445 57 119.060992 54 153.595182 0
O  57 1.370761 54 113.639669 51 78.771712 0
C  58 1.503255 57 120.773282 54 -26.937729 0
H  61 1.097195 58 112.948507 57 -25.399017 0
H  61 1.098752 58 108.000869 57 -146.647803 0
H  61 1.102701 58 109.672251 57 95.942234 0
C  11 1.558060 9 107.722069 7 -160.698209 0
O  65 1.260288 11 115.758534 9 177.365169 0
O  65 1.268332 11 116.808593 9 -3.425378 0
C  43 1.560502 41 107.221224 39 -157.670936 0
O  68 1.258254 43 115.930176 41 171.526901 0
O  68 1.269490 43 116.462890 41 -9.964958 0
$end

 -----------------------------------------------------------------------
                  END OF GEOMETRY OPTIMIZER USING LIBOPT3               
 -----------------------------------------------------------------------
 Total job time:  726319.23s(wall), 1441629.57s(cpu) 
 Thu May 30 22:15:45 2024

        *************************************************************
        *                                                           *
        *  Thank you very much for using Q-Chem.  Have a nice day.  *
        *                                                           *
        *************************************************************


