
Running Job 1 of 1 C_FePB_ccL_3sextet_b3lypD3bj_ccpVDZ_pcmH2O_opt.in
qchem C_FePB_ccL_3sextet_b3lypD3bj_ccpVDZ_pcmH2O_opt.in_3845478.0 /data/scratch/C_FePB_ccL_3sextet_b3lypD3bj_ccpVDZ_pcmH2O_opt20230530142146/ 0
/opt/qchem/6.0.1/exe/qcprog.exe_s C_FePB_ccL_3sextet_b3lypD3bj_ccpVDZ_pcmH2O_opt.in_3845478.0 /data/scratch/C_FePB_ccL_3sextet_b3lypD3bj_ccpVDZ_pcmH2O_opt20230530142146/
                  Welcome to Q-Chem
     A Quantum Leap Into The Future Of Chemistry


 Q-Chem 6.0, Q-Chem, Inc., Pleasanton, CA (2022)

 E. Epifanovsky,  A. T. B. Gilbert,  Xintian Feng,  Joonho Lee,  Yuezhi Mao,  
 N. Mardirossian,  P. Pokhilko,  A. White,  M. Wormit,  M. P. Coons,  
 A. L. Dempwolff,  Zhengting Gan,  D. Hait,  P. R. Horn,  L. D. Jacobson,  
 I. Kaliman,  J. Kussmann,  A. W. Lange,  Ka Un Lao,  D. S. Levine,  Jie Liu,  
 S. C. McKenzie,  A. F. Morrison,  K. Nanda,  F. Plasser,  D. R. Rehn,  
 M. L. Vidal,  Zhi-Qiang You,  Ying Zhu,  B. Alam,  B. Albrecht,  
 A. Aldossary,  E. Alguire,  J. H. Andersen,  V. Athavale,  D. Barton,  
 K. Begam,  A. Behn,  N. Bellonzi,  Y. A. Bernard,  E. J. Berquist,  
 H. Burton,  A. Carreras,  K. Carter-Fenk,  Romit Chakraborty,  
 Chandrima Chakravarty,  Junhan Chen,  A. D. Chien,  K. D. Closser,  
 V. Cofer-Shabica,  L. Cunha,  S. Dasgupta,  Jia Deng,  M. de Wergifosse,  
 M. Diedenhofen,  Hainam Do,  S. Ehlert,  Po-Tung Fang,  S. Fatehi,  
 Qingguo Feng,  T. Friedhoff,  B. Ganoe,  J. Gayvert,  Qinghui Ge,  
 G. Gidofalvi,  M. Goldey,  J. Gomes,  C. Gonzalez-Espinoza,  S. Gulania,  
 A. Gunina,  J. A. Gyamfi,  M. W. D. Hanson-Heine,  P. H. P. Harbach,  
 A. W. Hauser,  M. F. Herbst,  M. Hernandez Vera,  M. Hodecker,  
 Z. C. Holden,  S. Houck,  Xunkun Huang,  Kerwin Hui,  B. C. Huynh,  
 K. Ikeda,  M. Ivanov,  Hyunjun Ji,  Zuxin Jin,  Hanjie Jiang,  B. Kaduk,  
 S. Kaehler,  R. Kang,  K. Khistyaev,  Jaehoon Kim,  Yongbin Kim,  
 P. Klunzinger,  Z. Koczor-Benda,  Joong Hoon Koh,  D. Kosenkov,  
 Saikiran Kotaru,  L. Koulias,  T. Kowalczyk,  C. M. Krauter,  K. Kue,  
 A. Kunitsa,  T. Kus,  A. Landau,  K. V. Lawler,  D. Lefrancois,  S. Lehtola,  
 Rain Li,  Shaozhi Li,  Yi-Pei Li,  Jiashu Liang,  M. Liebenthal,  
 Hung-Hsuan Lin,  You-Sheng Lin,  Fenglai Liu,  Kuan-Yu Liu,  
 M. Loipersberger,  A. Luenser,  C. Malbon,  A. Manjanath,  P. Manohar,  
 E. Mansoor,  S. F. Manzer,  Shan-Ping Mao,  A. V. Marenich,  T. Markovich,  
 S. Mason,  F. Matz,  S. A. Maurer,  P. F. McLaughlin,  M. F. S. J. Menger,  
 J.-M. Mewes,  S. A. Mewes,  P. Morgante,  Mohammad Mostafanejad,  
 J. W. Mullinax,  K. J. Oosterbaan,  G. Paran,  V. Parravicini,  
 Alexander C. Paul,  Suranjan K. Paul,  F. Pavosevic,  Zheng Pei,  S. Prager,  
 E. I. Proynov,  E. Ramos,  B. Rana,  A. E. Rask,  A. Rettig,  R. M. Richard,  
 F. Rob,  E. Rossomme,  T. Scheele,  M. Scheurer,  M. Schneider,  
 P. E. Schneider,  N. Sergueev,  S. M. Sharada,  Hengyuan Shen,  
 W. Skomorowski,  D. W. Small,  C. J. Stein,  Yingli Su,  Yu-Chuan Su,  
 E. J. Sundstrom,  Zhen Tao,  J. Thirman,  Hung-Yi Tsai,  T. Tsuchimochi,  
 N. M. Tubman,  C. Utku,  S. P. Veccham,  O. Vydrov,  J. Wenzel,  
 Jonathan Wong,  J. Witte,  A. Yamada,  Chou-Hsun Yang,  Kun Yao,  
 S. Yeganeh,  S. R. Yost,  A. Zech,  F. Zeller,  Igor Ying Zhang,  
 Xing Zhang,  Yu Zhang,  D. Zuev,  A. Aspuru-Guzik,  A. T. Bell,  
 N. A. Besley,  K. B. Bravaya,  B. R. Brooks,  D. Casanova,  Jeng-Da Chai,  
 Hsing-Ta Chen,  S. Coriani,  C. J. Cramer,  A. E. DePrince, III,  
 R. A. DiStasio Jr.,  A. Dreuw,  B. D. Dunietz,  T. R. Furlani,  
 W. A. Goddard III,  S. Grimme,  S. Hammes-Schiffer,  T. Head-Gordon,  
 W. J. Hehre,  Chao-Ping Hsu,  T.-C. Jagau,  Yousung Jung,  A. Klamt,  
 Jing Kong,  D. S. Lambrecht,  Xiangyuan Li,  WanZhen Liang,  N. J. Mayhall,  
 C. W. McCurdy,  J. B. Neaton,  T. Neudecker,  C. Ochsenfeld,  
 J. A. Parkhill,  R. Peverati,  V. A. Rassolov,  Haisheng Ren,  Yihan Shao,  
 L. V. Slipchenko,  R. P. Steele,  J. E. Subotnik,  A. J. W. Thom,  
 A. Tkatchenko,  D. G. Truhlar,  T. Van Voorhis,  Fan Wang,  
 T. A. Wesolowski,  K. B. Whaley,  H. L. Woodcock III,  P. M. Zimmerman,  
 S. Faraji,  P. M. W. Gill,  M. Head-Gordon,  J. M. Herbert,  A. I. Krylov

 Contributors to earlier versions of Q-Chem not listed above: 
 R. D. Adamson,  B. Austin,  R. Baer,  J. Baker,  G. J. O. Beran,  
 K. Brandhorst,  S. T. Brown,  E. F. C. Byrd,  Arup K. Chakraborty,  
 G. K. L. Chan,  Chun-Min Chang,  Yunqing Chen,  C.-L. Cheng,  
 Siu Hung Chien,  D. M. Chipman,  D. L. Crittenden,  H. Dachsel,  
 R. J. Doerksen,  A. D. Dutoi,  R. G. Edgar,  J. Fosso-Tande,  
 L. Fusti-Molnar,  D. Ghosh,  A. Ghysels,  A. Golubeva-Zadorozhnaya,  
 J. Gonthier,  M. S. Gordon,  S. R. Gwaltney,  G. Hawkins,  J. E. Herr,  
 A. Heyden,  S. Hirata,  E. G. Hohenstein,  G. Kedziora,  F. J. Keil,  
 C. Kelley,  Jihan Kim,  R. A. King,  R. Z. Khaliullin,  P. P. Korambath,  
 W. Kurlancheek,  A. Laurent,  A. M. Lee,  M. S. Lee,  S. V. Levchenko,  
 Ching Yeh Lin,  D. Liotard,  E. Livshits,  R. C. Lochan,  I. Lotan,  
 L. A. Martinez-Martinez,  P. E. Maslen,  N. Nair,  D. P. O'Neill,  
 D. Neuhauser,  E. Neuscamman,  C. M. Oana,  R. Olivares-Amaya,  R. Olson,  
 T. M. Perrine,  B. Peters,  P. A. Pieniazek,  A. Prociuk,  Y. M. Rhee,  
 J. Ritchie,  M. A. Rohrdanz,  E. Rosta,  N. J. Russ,  H. F. Schaefer III,  
 M. W. Schmidt,  N. E. Schultz,  S. Sharma,  N. Shenvi,  C. D. Sherrill,  
 A. C. Simmonett,  A. Sodt,  T. Stein,  D. Stuck,  K. S. Thanthiriwatte,  
 V. Vanovschi,  L. Vogt,  Tao Wang,  A. Warshel,  M. A. Watson,  
 C. F. Williams,  Q. Wu,  X. Xu,  Jun Yang,  W. Zhang,  Yan Zhao

   Please cite Q-Chem as follows:
  "Software for the frontiers of quantum chemistry:
   An overview of developments in the Q-Chem 5 package"
   J. Chem. Phys. 155, 084801 (2021)
   https://doi.org/10.1063/5.0055522 (open access)

 Q-Chem 6.0.2 for Intel X86 EM64T Linux

 Parts of Q-Chem use Armadillo 9.900.5 (Nocturnal Misbehaviour).
 http://arma.sourceforge.net/

 Q-Chem begins on Tue May 30 14:21:47 2023  

 Host: 
0

     Scratch files written to /data/scratch/C_FePB_ccL_3sextet_b3lypD3bj_ccpVDZ_pcmH2O_opt20230530142146//
 Dec722 |scratch|qcdevops|jenkins|workspace|build_RNUM 8907   
 Processing $rem in /opt/qchem/6.0.1/config/preferences:
 Processing $rem in /home/sgardner/.qchemrc:
 Symmetry turned off for PCM/SM12/SMD calculation

 Checking the input file for inconsistencies... 	...done.

--------------------------------------------------------------
User input:
--------------------------------------------------------------
$molecule
-3 6
C    2.2952168   -2.3970518    0.7703194
C    3.2313232   -3.3226027    1.2252678
C    4.4854785   -3.3856052    0.6032160
C    4.7766536   -2.5606231   -0.5077966
C    3.7988521   -1.6622512   -0.9721533
C    2.5867489   -1.5654686   -0.3013855
H    3.0054480   -3.9603036    2.0699531
H    5.2188111   -4.0812714    0.9876907
O    1.6543459   -0.6617446   -0.6252389
C    6.1205806   -2.5228488   -1.1331255
O    6.2329841   -2.1755946   -2.3007061
N    7.2232757   -2.6932002   -0.3521002
H    7.0831348   -2.8727453    0.6533096
C    8.5467851   -2.2184873   -0.7214574
H    9.2837987   -2.8654012   -0.1978913
H    8.7491700   -2.2896177   -1.8123606
C    8.6981817   -0.7680150   -0.2004377
H    9.7677304   -0.4723180   -0.1306243
H    8.2987179   -0.7523897    0.8361946
C    7.9835209    0.2665938   -1.1104621
H    7.1902960   -0.1755399   -1.7230081
H    8.7191210    0.6339097   -1.8585082
N    7.3920430    1.3986267   -0.3799216
H    8.0673519    1.7952521    0.3143498
C    5.3093110    2.2881453    0.6589206
H    4.4172066    1.9948028    1.2547333
H    5.9624595    2.9090483    1.3067375
C    6.1157698    1.0330771    0.2706175
H    6.3215982    0.4338543    1.1830478
H    5.4935563    0.4076406   -0.3970468
C    4.8480458    3.1346608   -0.5507557
H    4.4836633    4.1182517   -0.1891894
H    5.7245642    3.3241674   -1.2062044
C    3.7207412    2.4773144   -1.3732207
H    4.0326233    1.4600661   -1.6789970
H    3.5429675    3.0427041   -2.3144029
N    2.4700465    2.4044179   -0.6308381
H    2.1477205    1.4925686   -0.3301410
C    1.6707688    3.4814357   -0.4130348
O    2.0154618    4.5813789   -0.8235915
C    0.3182754    3.3929695    0.2794789
H   -0.4141915    3.7505423   -0.4740028
H    0.3486930    4.1565972    1.0904273
C   -1.6266623    2.3788574    1.5405121
H   -2.0648171    1.5273152    2.0910821
H   -1.5165582    3.2109387    2.2725626
C   -2.5979066    2.8000455    0.4404945
O   -2.9750311    3.9630175    0.3968661
N   -2.9741051    1.9130678   -0.5281839
C   -3.6401934    2.2937672   -1.7606113
H   -2.6956141    0.9279157   -0.4461656
C   -4.9726691    1.5643413   -1.9795272
H   -2.9594401    2.0157250   -2.5951942
H   -3.7987218    3.3921687   -1.8318607
C   -6.0717867    2.0825336   -1.0409787
H   -5.2774208    1.8022413   -3.0223337
H   -4.8441640    0.4627580   -1.9006034
C   -7.4912965    1.6879204   -1.5058587
H   -6.0473471    3.1931749   -1.0928520
H   -5.8738888    1.7877993    0.0113597
H   -8.2350829    2.2766982   -0.9267713
H   -7.6142093    1.9977662   -2.5661451
C   -5.6713314   -2.6353170   -0.5722645
C   -4.4283871   -2.2659469    0.1637086
O   -5.6426103   -2.6638536   -1.7957350
C   -4.4752607   -1.8650725    1.5237919
C   -3.1957770   -2.1920027   -0.5237236
C   -3.3494118   -1.3407426    2.1520366
H   -5.3759459   -1.8843527    2.1125961
C   -2.0724475   -1.6860016    0.1320867
C   -2.1675042   -1.2263312    1.4380676
H   -3.4085447   -0.9988132    3.1772736
O   -0.8599535   -1.6005434   -0.4401400
C   -0.2138114    2.0562449    0.9314571
O   -0.3837620    1.0199056   -0.0281937
C    0.7950940    1.5996347    1.9819379
O    1.3726160    0.3905374    1.8193004
O    1.1319385    2.3268524    2.9037987
H    4.0015229   -0.9919723   -1.7983786
O    1.0862500   -2.2400707    1.3295497
H   -3.1129003   -2.4908670   -1.5616663
O   -1.0749262   -0.6567001    1.9559017
Fe    0.3120358   -0.6462286    0.6897439
N   -7.8099291    0.2556544   -1.3984026
H   -7.0744597   -0.3333611   -1.8502148
N   -6.8563448   -2.7877647    0.0850633
H   -6.8906512   -2.8474723    1.1091975
C   -8.1401207   -2.6908811   -0.5740695
H   -8.0375123   -2.5442863   -1.6704840
H   -8.7307547   -3.6160134   -0.4034906
C   -8.8773240   -1.4823720    0.0322779
H   -9.8554309   -1.3434183   -0.4748558
H   -9.0782288   -1.7029564    1.1046239
C   -8.0665483   -0.1663108   -0.0154267
H   -8.6765339    0.5987566    0.5130699
H   -7.1062829   -0.2633824    0.5386876
$end

$rem
BASIS  =  gen
DFT_D  =  D3_BJ
GUI  =  2
JOB_TYPE  =  Optimization
METHOD  =  B3LYP
BASIS GEN
PURECART 11
SCF_CONVERGENCE  =  8
SOLVENT_METHOD  =  PCM
$end

$pcm
THEORY  CPCM
$end

$solvent
DIELECTRIC  78.39
$end

$van_der_waals
26   2.44
$end

$basis
H     0
S   4   1.00
1.301000D+01           1.968500D-02
1.962000D+00           1.379770D-01
4.446000D-01           4.781480D-01
1.220000D-01           5.012400D-01
S   1   1.00
1.220000D-01           1.000000D+00
P   1   1.00
7.270000D-01           1.0000000
****
C     0
S   9   1.00
6.665000D+03           6.920000D-04
1.000000D+03           5.329000D-03
2.280000D+02           2.707700D-02
6.471000D+01           1.017180D-01
2.106000D+01           2.747400D-01
7.495000D+00           4.485640D-01
2.797000D+00           2.850740D-01
5.215000D-01           1.520400D-02
1.596000D-01          -3.191000D-03
S   9   1.00
6.665000D+03          -1.460000D-04
1.000000D+03          -1.154000D-03
2.280000D+02          -5.725000D-03
6.471000D+01          -2.331200D-02
2.106000D+01          -6.395500D-02
7.495000D+00          -1.499810D-01
2.797000D+00          -1.272620D-01
5.215000D-01           5.445290D-01
1.596000D-01           5.804960D-01
S   1   1.00
1.596000D-01           1.000000D+00
P   4   1.00
9.439000D+00           3.810900D-02
2.002000D+00           2.094800D-01
5.456000D-01           5.085570D-01
1.517000D-01           4.688420D-01
P   1   1.00
1.517000D-01           1.000000D+00
D   1   1.00
5.500000D-01           1.0000000
****
N     0
S   9   1.00
9.046000D+03           7.000000D-04
1.357000D+03           5.389000D-03
3.093000D+02           2.740600D-02
8.773000D+01           1.032070D-01
2.856000D+01           2.787230D-01
1.021000D+01           4.485400D-01
3.838000D+00           2.782380D-01
7.466000D-01           1.544000D-02
2.248000D-01          -2.864000D-03
S   9   1.00
9.046000D+03          -1.530000D-04
1.357000D+03          -1.208000D-03
3.093000D+02          -5.992000D-03
8.773000D+01          -2.454400D-02
2.856000D+01          -6.745900D-02
1.021000D+01          -1.580780D-01
3.838000D+00          -1.218310D-01
7.466000D-01           5.490030D-01
2.248000D-01           5.788150D-01
S   1   1.00
2.248000D-01           1.000000D+00
P   4   1.00
1.355000D+01           3.991900D-02
2.917000D+00           2.171690D-01
7.973000D-01           5.103190D-01
2.185000D-01           4.622140D-01
P   1   1.00
2.185000D-01           1.000000D+00
D   1   1.00
8.170000D-01           1.0000000
****
O     0
S   9   1.00
1.172000D+04           7.100000D-04
1.759000D+03           5.470000D-03
4.008000D+02           2.783700D-02
1.137000D+02           1.048000D-01
3.703000D+01           2.830620D-01
1.327000D+01           4.487190D-01
5.025000D+00           2.709520D-01
1.013000D+00           1.545800D-02
3.023000D-01          -2.585000D-03
S   9   1.00
1.172000D+04          -1.600000D-04
1.759000D+03          -1.263000D-03
4.008000D+02          -6.267000D-03
1.137000D+02          -2.571600D-02
3.703000D+01          -7.092400D-02
1.327000D+01          -1.654110D-01
5.025000D+00          -1.169550D-01
1.013000D+00           5.573680D-01
3.023000D-01           5.727590D-01
S   1   1.00
3.023000D-01           1.000000D+00
P   4   1.00
1.770000D+01           4.301800D-02
3.854000D+00           2.289130D-01
1.046000D+00           5.087280D-01
2.753000D-01           4.605310D-01
P   1   1.00
2.753000D-01           1.000000D+00
D   1   1.00
1.185000D+00           1.0000000
****
Fe     0
S   20   1.00
4.316265D+06           8.048803D-06
6.463424D+05           6.258306D-05
1.470897D+05           3.290239D-04
4.166152D+04           1.387355D-03
1.359077D+04           5.023256D-03
4.905750D+03           1.610140D-02
1.912746D+03           4.590034D-02
7.926043D+02           1.136154D-01
3.448065D+02           2.283869D-01
1.558999D+02           3.221159D-01
7.223091D+01           2.383661D-01
3.272506D+01           7.404667D-02
1.566762D+01           9.214197D-02
7.503483D+00           9.339790D-02
3.312223D+00           1.573965D-02
1.558471D+00          -4.186682D-04
6.839140D-01           5.376318D-05
1.467570D-01          -3.816654D-05
7.058300D-02           4.319603D-05
3.144900D-02          -3.401019D-06
S   20   1.00
4.316265D+06          -4.155954D-06
6.463424D+05          -3.231401D-05
1.470897D+05          -1.699525D-04
4.166152D+04          -7.171369D-04
1.359077D+04          -2.603625D-03
4.905750D+03          -8.399109D-03
1.912746D+03          -2.434109D-02
7.926043D+02          -6.251948D-02
3.448065D+02          -1.365929D-01
1.558999D+02          -2.312707D-01
7.223091D+01          -2.383734D-01
3.272506D+01           3.123837D-02
1.566762D+01           5.086818D-01
7.503483D+00           4.987695D-01
3.312223D+00           9.033552D-02
1.558471D+00          -6.005337D-03
6.839140D-01           2.312454D-04
1.467570D-01          -5.643680D-04
7.058300D-02           4.992260D-04
3.144900D-02          -1.015293D-04
S   20   1.00
4.316265D+06           9.532178D-07
6.463424D+05           7.414605D-06
1.470897D+05           3.898393D-05
4.166152D+04           1.647152D-04
1.359077D+04           5.985980D-04
4.905750D+03           1.942390D-03
1.912746D+03           5.687237D-03
7.926043D+02           1.501329D-02
3.448065D+02           3.452455D-02
1.558999D+02           6.495820D-02
7.223091D+01           7.716194D-02
3.272506D+01          -1.873411D-02
1.566762D+01          -3.009185D-01
7.503483D+00          -4.554661D-01
3.312223D+00           1.286463D-01
1.558471D+00           7.183316D-01
6.839140D-01           4.051743D-01
1.467570D-01           2.168227D-02
7.058300D-02          -8.343566D-03
3.144900D-02           3.658979D-03
S   20   1.00
4.316265D+06          -2.063008D-07
6.463424D+05          -1.604169D-06
1.470897D+05          -8.438437D-06
4.166152D+04          -3.563151D-05
1.359077D+04          -1.295998D-04
4.905750D+03          -4.201534D-04
1.912746D+03          -1.231954D-03
7.926043D+02          -3.248922D-03
3.448065D+02          -7.493717D-03
1.558999D+02          -1.410102D-02
7.223091D+01          -1.691600D-02
3.272506D+01           4.218996D-03
1.566762D+01           6.833810D-02
7.503483D+00           1.098201D-01
3.312223D+00          -4.009005D-02
1.558471D+00          -2.174739D-01
6.839140D-01          -2.465135D-01
1.467570D-01           2.731435D-01
7.058300D-02           5.748321D-01
3.144900D-02           3.012713D-01
S   20   1.00
4.316265D+06          -4.009367D-07
6.463424D+05          -3.189255D-06
1.470897D+05          -1.623079D-05
4.166152D+04          -7.157920D-05
1.359077D+04          -2.463958D-04
4.905750D+03          -8.544907D-04
1.912746D+03          -2.307593D-03
7.926043D+02          -6.728292D-03
3.448065D+02          -1.366165D-02
1.558999D+02          -3.062240D-02
7.223091D+01          -2.631137D-02
3.272506D+01          -9.760183D-03
1.566762D+01           1.801906D-01
7.503483D+00           1.529634D-01
3.312223D+00           5.505413D-02
1.558471D+00          -9.551364D-01
6.839140D-01           2.586813D-01
1.467570D-01           1.834049D+00
7.058300D-02          -9.333240D-01
3.144900D-02          -6.981605D-01
S   1   1.00
3.144900D-02           1.000000D+00
P   16   1.00
1.774569D+04           4.100000D-05
4.200721D+03           3.690000D-04
1.364429D+03           2.129000D-03
5.220806D+02           9.369000D-03
2.214595D+02           3.309700D-02
1.009096D+02           9.443100D-02
4.840115D+01           2.080770D-01
2.398536D+01           3.323330D-01
1.218250D+01           3.329870D-01
6.242298D+00           1.568430D-01
3.110944D+00           2.154900D-02
1.509958D+00          -2.095000D-03
7.108450D-01          -1.739000D-03
2.731900D-01          -3.000000D-04
1.042330D-01           2.900000D-05
3.829100D-02          -1.100000D-05
P   16   1.00
1.774569D+04          -1.500000D-05
4.200721D+03          -1.300000D-04
1.364429D+03          -7.510000D-04
5.220806D+02          -3.329000D-03
2.214595D+02          -1.191200D-02
1.009096D+02          -3.493300D-02
4.840115D+01          -7.998900D-02
2.398536D+01          -1.346360D-01
1.218250D+01          -1.385980D-01
6.242298D+00           3.027800D-02
3.110944D+00           3.332160D-01
1.509958D+00           4.561530D-01
7.108450D-01           2.850510D-01
2.731900D-01           4.614400D-02
1.042330D-01          -3.249000D-03
3.829100D-02           1.357000D-03
P   16   1.00
1.774569D+04           5.000000D-06
4.200721D+03           4.200000D-05
1.364429D+03           2.410000D-04
5.220806D+02           1.085000D-03
2.214595D+02           3.831000D-03
1.009096D+02           1.142300D-02
4.840115D+01           2.579200D-02
2.398536D+01           4.481800D-02
1.218250D+01           4.459800D-02
6.242298D+00          -1.117700D-02
3.110944D+00          -1.381340D-01
1.509958D+00          -1.882850D-01
7.108450D-01          -1.073990D-01
2.731900D-01           4.448630D-01
1.042330D-01           6.402390D-01
3.829100D-02           6.445700D-02
P   16   1.00
1.774569D+04           3.000000D-06
4.200721D+03           2.900000D-05
1.364429D+03           1.650000D-04
5.220806D+02           7.340000D-04
2.214595D+02           2.626000D-03
1.009096D+02           7.725000D-03
4.840115D+01           1.773300D-02
2.398536D+01           3.005500D-02
1.218250D+01           3.109400D-02
6.242298D+00          -1.004800D-02
3.110944D+00          -8.830600D-02
1.509958D+00          -1.298240D-01
7.108450D-01          -7.693700D-02
2.731900D-01           2.126610D-01
1.042330D-01           5.730610D-01
3.829100D-02           3.696510D-01
P   1   1.00
3.829100D-02           1.000000D+00
D   8   1.00
1.133440D+02           3.530000D-03
3.364140D+01           2.578400D-02
1.233100D+01           9.911900D-02
4.994780D+00           2.390730D-01
2.072800D+00           3.571990D-01
8.307530D-01           3.621880D-01
3.091780D-01           2.364610D-01
1.001300D-01           6.011800D-02
D   8   1.00
1.133440D+02          -3.890000D-03
3.364140D+01          -2.844200D-02
1.233100D+01          -1.124290D-01
4.994780D+00          -2.742570D-01
2.072800D+00          -3.155460D-01
8.307530D-01           5.710900D-02
3.091780D-01           5.636040D-01
1.001300D-01           3.846370D-01
D   1   1.00
1.001300D-01           1.000000D+00
F   2   1.00
3.224300D+00           4.222490D-01
7.758000D-01           7.714680D-01
****
$end



--------------------------------------------------------------
 Adding empirical dispersion correction 
 ----------------------------------------------------------------
 Doing -D3(BJ) with
 s6  =   1.00000
 s8  =   1.98890
 a1  =   0.39810
 a2  =   4.42110
 -D3 energy without 3body term =     -0.2332511049 hartrees
 ----------------------------------------------------------------
             Standard Nuclear Orientation (Angstroms)
    I     Atom           X                Y                Z
 ----------------------------------------------------------------
    1      C       2.2952168000    -2.3970518000     0.7703194000
    2      C       3.2313232000    -3.3226027000     1.2252678000
    3      C       4.4854785000    -3.3856052000     0.6032160000
    4      C       4.7766536000    -2.5606231000    -0.5077966000
    5      C       3.7988521000    -1.6622512000    -0.9721533000
    6      C       2.5867489000    -1.5654686000    -0.3013855000
    7      H       3.0054480000    -3.9603036000     2.0699531000
    8      H       5.2188111000    -4.0812714000     0.9876907000
    9      O       1.6543459000    -0.6617446000    -0.6252389000
   10      C       6.1205806000    -2.5228488000    -1.1331255000
   11      O       6.2329841000    -2.1755946000    -2.3007061000
   12      N       7.2232757000    -2.6932002000    -0.3521002000
   13      H       7.0831348000    -2.8727453000     0.6533096000
   14      C       8.5467851000    -2.2184873000    -0.7214574000
   15      H       9.2837987000    -2.8654012000    -0.1978913000
   16      H       8.7491700000    -2.2896177000    -1.8123606000
   17      C       8.6981817000    -0.7680150000    -0.2004377000
   18      H       9.7677304000    -0.4723180000    -0.1306243000
   19      H       8.2987179000    -0.7523897000     0.8361946000
   20      C       7.9835209000     0.2665938000    -1.1104621000
   21      H       7.1902960000    -0.1755399000    -1.7230081000
   22      H       8.7191210000     0.6339097000    -1.8585082000
   23      N       7.3920430000     1.3986267000    -0.3799216000
   24      H       8.0673519000     1.7952521000     0.3143498000
   25      C       5.3093110000     2.2881453000     0.6589206000
   26      H       4.4172066000     1.9948028000     1.2547333000
   27      H       5.9624595000     2.9090483000     1.3067375000
   28      C       6.1157698000     1.0330771000     0.2706175000
   29      H       6.3215982000     0.4338543000     1.1830478000
   30      H       5.4935563000     0.4076406000    -0.3970468000
   31      C       4.8480458000     3.1346608000    -0.5507557000
   32      H       4.4836633000     4.1182517000    -0.1891894000
   33      H       5.7245642000     3.3241674000    -1.2062044000
   34      C       3.7207412000     2.4773144000    -1.3732207000
   35      H       4.0326233000     1.4600661000    -1.6789970000
   36      H       3.5429675000     3.0427041000    -2.3144029000
   37      N       2.4700465000     2.4044179000    -0.6308381000
   38      H       2.1477205000     1.4925686000    -0.3301410000
   39      C       1.6707688000     3.4814357000    -0.4130348000
   40      O       2.0154618000     4.5813789000    -0.8235915000
   41      C       0.3182754000     3.3929695000     0.2794789000
   42      H      -0.4141915000     3.7505423000    -0.4740028000
   43      H       0.3486930000     4.1565972000     1.0904273000
   44      C      -1.6266623000     2.3788574000     1.5405121000
   45      H      -2.0648171000     1.5273152000     2.0910821000
   46      H      -1.5165582000     3.2109387000     2.2725626000
   47      C      -2.5979066000     2.8000455000     0.4404945000
   48      O      -2.9750311000     3.9630175000     0.3968661000
   49      N      -2.9741051000     1.9130678000    -0.5281839000
   50      C      -3.6401934000     2.2937672000    -1.7606113000
   51      H      -2.6956141000     0.9279157000    -0.4461656000
   52      C      -4.9726691000     1.5643413000    -1.9795272000
   53      H      -2.9594401000     2.0157250000    -2.5951942000
   54      H      -3.7987218000     3.3921687000    -1.8318607000
   55      C      -6.0717867000     2.0825336000    -1.0409787000
   56      H      -5.2774208000     1.8022413000    -3.0223337000
   57      H      -4.8441640000     0.4627580000    -1.9006034000
   58      C      -7.4912965000     1.6879204000    -1.5058587000
   59      H      -6.0473471000     3.1931749000    -1.0928520000
   60      H      -5.8738888000     1.7877993000     0.0113597000
   61      H      -8.2350829000     2.2766982000    -0.9267713000
   62      H      -7.6142093000     1.9977662000    -2.5661451000
   63      C      -5.6713314000    -2.6353170000    -0.5722645000
   64      C      -4.4283871000    -2.2659469000     0.1637086000
   65      O      -5.6426103000    -2.6638536000    -1.7957350000
   66      C      -4.4752607000    -1.8650725000     1.5237919000
   67      C      -3.1957770000    -2.1920027000    -0.5237236000
   68      C      -3.3494118000    -1.3407426000     2.1520366000
   69      H      -5.3759459000    -1.8843527000     2.1125961000
   70      C      -2.0724475000    -1.6860016000     0.1320867000
   71      C      -2.1675042000    -1.2263312000     1.4380676000
   72      H      -3.4085447000    -0.9988132000     3.1772736000
   73      O      -0.8599535000    -1.6005434000    -0.4401400000
   74      C      -0.2138114000     2.0562449000     0.9314571000
   75      O      -0.3837620000     1.0199056000    -0.0281937000
   76      C       0.7950940000     1.5996347000     1.9819379000
   77      O       1.3726160000     0.3905374000     1.8193004000
   78      O       1.1319385000     2.3268524000     2.9037987000
   79      H       4.0015229000    -0.9919723000    -1.7983786000
   80      O       1.0862500000    -2.2400707000     1.3295497000
   81      H      -3.1129003000    -2.4908670000    -1.5616663000
   82      O      -1.0749262000    -0.6567001000     1.9559017000
   83      Fe      0.3120358000    -0.6462286000     0.6897439000
   84      N      -7.8099291000     0.2556544000    -1.3984026000
   85      H      -7.0744597000    -0.3333611000    -1.8502148000
   86      N      -6.8563448000    -2.7877647000     0.0850633000
   87      H      -6.8906512000    -2.8474723000     1.1091975000
   88      C      -8.1401207000    -2.6908811000    -0.5740695000
   89      H      -8.0375123000    -2.5442863000    -1.6704840000
   90      H      -8.7307547000    -3.6160134000    -0.4034906000
   91      C      -8.8773240000    -1.4823720000     0.0322779000
   92      H      -9.8554309000    -1.3434183000    -0.4748558000
   93      H      -9.0782288000    -1.7029564000     1.1046239000
   94      C      -8.0665483000    -0.1663108000    -0.0154267000
   95      H      -8.6765339000     0.5987566000     0.5130699000
   96      H      -7.1062829000    -0.2633824000     0.5386876000
 ----------------------------------------------------------------
 Nuclear Repulsion Energy =        8378.31579899 hartrees
 There are      206 alpha and      201 beta electrons
 Requested basis set is non-standard
 There are 453 shells and 977 basis functions

 Total QAlloc Memory Limit   8000 MB
 Mega-Array Size       188 MB
 MEM_STATIC part       192 MB

 -----------------------------------------------------------------------
                STARTING GEOMETRY OPTIMIZER USING LIBOPT3
                by Peter F. McLaughlin, Yu Zhang, Evgeny Epifanovsky
 -----------------------------------------------------------------------

              Initial Energy and Gradient Calculation
   -- Checking Topology for Ill-Behaving Coordinates --

 -------------------------------------------
   Coordinate       |  Removed | Additions 
 -------------------------------------------
	Bonds                     0          0
	Angles                    3          0
	Torsions                  6          6
	Co-Linear Type5s          0          6
	Co-Linear Type6s          0          6
 -------------------------------------------

 ** Ill-Behaving Topology Definitions (No action needed.) **

  Ill-Defined Angles Removed: 
   9  83  82,  73  83  77,  75  83  80

  Ill-Defined Torsions Removed: 
   1  80  83  75,   6   9  83  82,  70  73  83  77,  71  82  83   9,  74  75  83  80
  76  77  83  73

     Done Checking Topology
 Adding empirical dispersion correction 
 ----------------------------------------------------------------
 Doing -D3(BJ) with
 s6  =   1.00000
 s8  =   1.98890
 a1  =   0.39810
 a2  =   4.42110
 -D3 energy without 3body term =     -0.2332511049 hartrees
 ----------------------------------------------------------------
             Standard Nuclear Orientation (Angstroms)
    I     Atom           X                Y                Z
 ----------------------------------------------------------------
    1      C       2.2952168000    -2.3970518000     0.7703194000
    2      C       3.2313232000    -3.3226027000     1.2252678000
    3      C       4.4854785000    -3.3856052000     0.6032160000
    4      C       4.7766536000    -2.5606231000    -0.5077966000
    5      C       3.7988521000    -1.6622512000    -0.9721533000
    6      C       2.5867489000    -1.5654686000    -0.3013855000
    7      H       3.0054480000    -3.9603036000     2.0699531000
    8      H       5.2188111000    -4.0812714000     0.9876907000
    9      O       1.6543459000    -0.6617446000    -0.6252389000
   10      C       6.1205806000    -2.5228488000    -1.1331255000
   11      O       6.2329841000    -2.1755946000    -2.3007061000
   12      N       7.2232757000    -2.6932002000    -0.3521002000
   13      H       7.0831348000    -2.8727453000     0.6533096000
   14      C       8.5467851000    -2.2184873000    -0.7214574000
   15      H       9.2837987000    -2.8654012000    -0.1978913000
   16      H       8.7491700000    -2.2896177000    -1.8123606000
   17      C       8.6981817000    -0.7680150000    -0.2004377000
   18      H       9.7677304000    -0.4723180000    -0.1306243000
   19      H       8.2987179000    -0.7523897000     0.8361946000
   20      C       7.9835209000     0.2665938000    -1.1104621000
   21      H       7.1902960000    -0.1755399000    -1.7230081000
   22      H       8.7191210000     0.6339097000    -1.8585082000
   23      N       7.3920430000     1.3986267000    -0.3799216000
   24      H       8.0673519000     1.7952521000     0.3143498000
   25      C       5.3093110000     2.2881453000     0.6589206000
   26      H       4.4172066000     1.9948028000     1.2547333000
   27      H       5.9624595000     2.9090483000     1.3067375000
   28      C       6.1157698000     1.0330771000     0.2706175000
   29      H       6.3215982000     0.4338543000     1.1830478000
   30      H       5.4935563000     0.4076406000    -0.3970468000
   31      C       4.8480458000     3.1346608000    -0.5507557000
   32      H       4.4836633000     4.1182517000    -0.1891894000
   33      H       5.7245642000     3.3241674000    -1.2062044000
   34      C       3.7207412000     2.4773144000    -1.3732207000
   35      H       4.0326233000     1.4600661000    -1.6789970000
   36      H       3.5429675000     3.0427041000    -2.3144029000
   37      N       2.4700465000     2.4044179000    -0.6308381000
   38      H       2.1477205000     1.4925686000    -0.3301410000
   39      C       1.6707688000     3.4814357000    -0.4130348000
   40      O       2.0154618000     4.5813789000    -0.8235915000
   41      C       0.3182754000     3.3929695000     0.2794789000
   42      H      -0.4141915000     3.7505423000    -0.4740028000
   43      H       0.3486930000     4.1565972000     1.0904273000
   44      C      -1.6266623000     2.3788574000     1.5405121000
   45      H      -2.0648171000     1.5273152000     2.0910821000
   46      H      -1.5165582000     3.2109387000     2.2725626000
   47      C      -2.5979066000     2.8000455000     0.4404945000
   48      O      -2.9750311000     3.9630175000     0.3968661000
   49      N      -2.9741051000     1.9130678000    -0.5281839000
   50      C      -3.6401934000     2.2937672000    -1.7606113000
   51      H      -2.6956141000     0.9279157000    -0.4461656000
   52      C      -4.9726691000     1.5643413000    -1.9795272000
   53      H      -2.9594401000     2.0157250000    -2.5951942000
   54      H      -3.7987218000     3.3921687000    -1.8318607000
   55      C      -6.0717867000     2.0825336000    -1.0409787000
   56      H      -5.2774208000     1.8022413000    -3.0223337000
   57      H      -4.8441640000     0.4627580000    -1.9006034000
   58      C      -7.4912965000     1.6879204000    -1.5058587000
   59      H      -6.0473471000     3.1931749000    -1.0928520000
   60      H      -5.8738888000     1.7877993000     0.0113597000
   61      H      -8.2350829000     2.2766982000    -0.9267713000
   62      H      -7.6142093000     1.9977662000    -2.5661451000
   63      C      -5.6713314000    -2.6353170000    -0.5722645000
   64      C      -4.4283871000    -2.2659469000     0.1637086000
   65      O      -5.6426103000    -2.6638536000    -1.7957350000
   66      C      -4.4752607000    -1.8650725000     1.5237919000
   67      C      -3.1957770000    -2.1920027000    -0.5237236000
   68      C      -3.3494118000    -1.3407426000     2.1520366000
   69      H      -5.3759459000    -1.8843527000     2.1125961000
   70      C      -2.0724475000    -1.6860016000     0.1320867000
   71      C      -2.1675042000    -1.2263312000     1.4380676000
   72      H      -3.4085447000    -0.9988132000     3.1772736000
   73      O      -0.8599535000    -1.6005434000    -0.4401400000
   74      C      -0.2138114000     2.0562449000     0.9314571000
   75      O      -0.3837620000     1.0199056000    -0.0281937000
   76      C       0.7950940000     1.5996347000     1.9819379000
   77      O       1.3726160000     0.3905374000     1.8193004000
   78      O       1.1319385000     2.3268524000     2.9037987000
   79      H       4.0015229000    -0.9919723000    -1.7983786000
   80      O       1.0862500000    -2.2400707000     1.3295497000
   81      H      -3.1129003000    -2.4908670000    -1.5616663000
   82      O      -1.0749262000    -0.6567001000     1.9559017000
   83      Fe      0.3120358000    -0.6462286000     0.6897439000
   84      N      -7.8099291000     0.2556544000    -1.3984026000
   85      H      -7.0744597000    -0.3333611000    -1.8502148000
   86      N      -6.8563448000    -2.7877647000     0.0850633000
   87      H      -6.8906512000    -2.8474723000     1.1091975000
   88      C      -8.1401207000    -2.6908811000    -0.5740695000
   89      H      -8.0375123000    -2.5442863000    -1.6704840000
   90      H      -8.7307547000    -3.6160134000    -0.4034906000
   91      C      -8.8773240000    -1.4823720000     0.0322779000
   92      H      -9.8554309000    -1.3434183000    -0.4748558000
   93      H      -9.0782288000    -1.7029564000     1.1046239000
   94      C      -8.0665483000    -0.1663108000    -0.0154267000
   95      H      -8.6765339000     0.5987566000     0.5130699000
   96      H      -7.1062829000    -0.2633824000     0.5386876000
 ----------------------------------------------------------------
 Nuclear Repulsion Energy =        8378.31579899 hartrees
 There are      206 alpha and      201 beta electrons
 Using C-PCM dielectric factor f(eps) = (eps-1)/eps = 0.987243
No default van der Waals radius is available for Z = 26
	Found R = 2.4400 A in the $van_der_waals section
 Discretize the solute cavity surface with Lebedev spheres
	Using 110 Lebedev grid points for each H atom
	Using 194 Lebedev grid points for other atoms
	Atomic van der Waals radii (Bondi set) will be scaled by 1.20
 Using smooth SwiG surface discretization
 Remove points where switching function is < 1.0e-08
 Keep 5610 surface tesserae and discard 9318 interior tesserae
 Molecular Surface Area = 700.815 Angst**2

 Requested basis set is non-standard
 There are 453 shells and 977 basis functions
 A cutoff of  1.0D-12 yielded  63297 shell pairs
 There are    272979 function pairs (    301845 Cartesian)
 Smallest overlap matrix eigenvalue = 1.46E-04

 Scale SEOQF with 1.000000e-02/1.000000e-01/1.000000e-01

 Standard Electronic Orientation quadrupole field applied
 Nucleus-field energy     =     0.0000001117 hartrees
 ================ Generating on-the-fly SAD Guess ================
 Attempting to make child job directory: /data/scratch/C_FePB_ccL_3sextet_b3lypD3bj_ccpVDZ_pcmH2O_opt20230530142146//Frg1/
 Attempting to make child job directory: /data/scratch/C_FePB_ccL_3sextet_b3lypD3bj_ccpVDZ_pcmH2O_opt20230530142146//Frg2/
 Attempting to make child job directory: /data/scratch/C_FePB_ccL_3sextet_b3lypD3bj_ccpVDZ_pcmH2O_opt20230530142146//Frg3/
 Attempting to make child job directory: /data/scratch/C_FePB_ccL_3sextet_b3lypD3bj_ccpVDZ_pcmH2O_opt20230530142146//Frg4/
 Attempting to make child job directory: /data/scratch/C_FePB_ccL_3sextet_b3lypD3bj_ccpVDZ_pcmH2O_opt20230530142146//Frg5/
 Creating input file /data/scratch/C_FePB_ccL_3sextet_b3lypD3bj_ccpVDZ_pcmH2O_opt20230530142146/Frg1.input
 using default PutDataFrgm: nothing
 calling putenv with: QCSCRATCH=/data/scratch/C_FePB_ccL_3sextet_b3lypD3bj_ccpVDZ_pcmH2O_opt20230530142146/ 
 Spawning Job For Fragment 0
 Done Job For Fragment 0
 calling putenv with: QCSCRATCH=/data/scratch 
 calling putenv with: QCTHREADS=20 
 Creating input file /data/scratch/C_FePB_ccL_3sextet_b3lypD3bj_ccpVDZ_pcmH2O_opt20230530142146/Frg2.input
 using default PutDataFrgm: nothing
 calling putenv with: QCSCRATCH=/data/scratch/C_FePB_ccL_3sextet_b3lypD3bj_ccpVDZ_pcmH2O_opt20230530142146/ 
 Spawning Job For Fragment 1
 Done Job For Fragment 1
 calling putenv with: QCSCRATCH=/data/scratch 
 calling putenv with: QCTHREADS=20 
 Creating input file /data/scratch/C_FePB_ccL_3sextet_b3lypD3bj_ccpVDZ_pcmH2O_opt20230530142146/Frg3.input
 using default PutDataFrgm: nothing
 calling putenv with: QCSCRATCH=/data/scratch/C_FePB_ccL_3sextet_b3lypD3bj_ccpVDZ_pcmH2O_opt20230530142146/ 
 Spawning Job For Fragment 2
 Done Job For Fragment 2
 calling putenv with: QCSCRATCH=/data/scratch 
 calling putenv with: QCTHREADS=20 
 Creating input file /data/scratch/C_FePB_ccL_3sextet_b3lypD3bj_ccpVDZ_pcmH2O_opt20230530142146/Frg4.input
 using default PutDataFrgm: nothing
 calling putenv with: QCSCRATCH=/data/scratch/C_FePB_ccL_3sextet_b3lypD3bj_ccpVDZ_pcmH2O_opt20230530142146/ 
 Spawning Job For Fragment 3
 Done Job For Fragment 3
 calling putenv with: QCSCRATCH=/data/scratch 
 calling putenv with: QCTHREADS=20 
 Creating input file /data/scratch/C_FePB_ccL_3sextet_b3lypD3bj_ccpVDZ_pcmH2O_opt20230530142146/Frg5.input
 using default PutDataFrgm: nothing
 calling putenv with: QCSCRATCH=/data/scratch/C_FePB_ccL_3sextet_b3lypD3bj_ccpVDZ_pcmH2O_opt20230530142146/ 
 Spawning Job For Fragment 4
 Done Job For Fragment 4
 calling putenv with: QCSCRATCH=/data/scratch 
 calling putenv with: QCTHREADS=20 
 Time for running child jobs:  CPU 0.02 s  wall 57.58 s
 ============= Method Specific SAD Guess Constructed =============
 Guess from on-the-fly superposition of atomic densities
 Warning: Energy on first SCF cycle will be non-variational

 -----------------------------------------------------------------------
  General SCF calculation program by
  Eric Jon Sundstrom, Paul Horn, Yuezhi Mao, Dmitri Zuev, Alec White,
  David Stuck, Shaama M.S., Shane Yost, Joonho Lee, David Small,
  Daniel Levine, Susi Lehtola, Hugh Burton, Evgeny Epifanovsky,
  Bang C. Huynh
 -----------------------------------------------------------------------
 Exchange:     0.2000 Hartree-Fock + 0.0800 Slater + 0.7200 B88
 Correlation:  0.1900 VWN1RPA + 0.8100 LYP
 Using SG-1 standard quadrature grid
 Dispersion:   Grimme D3
 using 20 threads for integral computing
 -------------------------------------------------------
 OpenMP Integral computing Module                
 Release: version 1.0, May 2013, Q-Chem Inc. Pittsburgh 
 -------------------------------------------------------
 C-PCM solvent model [f = (eps-1)/eps], solve by matrix inversion
 A unrestricted SCF calculation will be
 performed using DIIS
 SCF converges when DIIS error is below 1.0e-08
 ---------------------------------------
  Cycle       Energy         DIIS error
 ---------------------------------------
    1   -3763.0815707620      1.42e-02  
    2   -3741.4174109735      1.72e-03  
    3   -3740.2591984249      2.60e-03  
    4   -3742.6486868751      6.96e-04  
    5   -3742.8072339766      2.24e-04  
    6   -3742.8161550421      1.75e-04  
    7   -3742.8263541201      4.77e-05  
    8   -3742.8273060695      2.23e-05  
    9   -3742.8275283605      9.65e-06  
   10   -3742.8275716785      4.32e-06  
   11   -3742.8275803475      1.89e-06  
   12   -3742.8275819974      7.45e-07  
   13   -3742.8275823216      3.64e-07  
   14   -3742.8275823960      1.46e-07  
   15   -3742.8275824193      8.46e-08  
   16   -3742.8275824276      5.05e-08  
   17   -3742.8275824311      2.08e-08  
   18   -3742.8275824319      1.33e-08  
   19   -3742.8275824317      6.73e-09  Convergence criterion met
 ---------------------------------------
 SCF time:   CPU 45971.76s  wall 3224.00s 
<S^2> =          8.756061767

************** Final PCM Free Energy Summary **************
 G_electrostatic  =      -0.54117263 hartree =    -339.59095014 kcal/mol
 G_cavitation     =       0.00000000 hartree =       0.00000000 kcal/mol
 G_dispersion     =       0.00000000 hartree =       0.00000000 kcal/mol
 G_repulsion      =       0.00000000 hartree =       0.00000000 kcal/mol
 --------------------------------------------------
 Non-electrostatic Free Energy =       0.00000000 hartree =       0.00000000 kcal/mol
 Total                         =      -0.54117263 hartree =    -339.59095014 kcal/mol
 --------------------------------------------------
 SCF Energy (H0 + V/2)                       =   -3742.82758243 
 Solute Internal Energy (H0)                 =   -3742.28640980 
 Total Free Energy (H0 + V/2 + non-elec)     =   -3742.82758243 hartree
                                             = -2348659.75629593 kcal/mol
***********************************************************

 SCF   energy in the final basis set =    -3742.8275824317
 Total energy in the final basis set =    -3742.8275824317
 
 --------------------------------------------------------------
 
                    Orbital Energies (a.u.)
 --------------------------------------------------------------
 
 Alpha MOs
 -- Occupied --
******** -30.0478 -25.8999 -25.8980 -25.8978 -19.0870 -19.0865 -19.0848
-19.0847 -19.0810 -19.0794 -19.0676 -19.0660 -19.0639 -19.0603 -19.0343
-14.3363 -14.3346 -14.3282 -14.3267 -14.3007 -14.3006 -10.2679 -10.2673
-10.2664 -10.2644 -10.2597 -10.2138 -10.2128 -10.2094 -10.2069 -10.2060
-10.1975 -10.1967 -10.1945 -10.1936 -10.1920 -10.1917 -10.1909 -10.1902
-10.1765 -10.1752 -10.1746 -10.1734 -10.1708 -10.1699 -10.1691 -10.1680
-10.1675 -10.1651 -10.1633 -10.1629 -10.1539 -10.1532 -10.1521 -10.1517
 -3.5416  -2.3187  -2.3165  -2.3145  -1.0254  -1.0240  -1.0236  -1.0213
 -1.0186  -0.9836  -0.9748  -0.9347  -0.9331  -0.9324  -0.9090  -0.9068
 -0.9055  -0.8968  -0.8925  -0.8830  -0.8807  -0.8160  -0.8149  -0.7769
 -0.7733  -0.7543  -0.7510  -0.7439  -0.7185  -0.7167  -0.7125  -0.7027
 -0.6960  -0.6908  -0.6802  -0.6584  -0.6516  -0.6258  -0.6189  -0.6031
 -0.5959  -0.5949  -0.5774  -0.5757  -0.5741  -0.5732  -0.5692  -0.5575
 -0.5559  -0.5551  -0.5538  -0.5381  -0.5110  -0.5036  -0.5006  -0.4837
 -0.4811  -0.4769  -0.4716  -0.4673  -0.4653  -0.4618  -0.4596  -0.4571
 -0.4562  -0.4524  -0.4500  -0.4459  -0.4455  -0.4429  -0.4373  -0.4337
 -0.4328  -0.4281  -0.4239  -0.4201  -0.4196  -0.4155  -0.4128  -0.4092
 -0.4074  -0.4056  -0.4049  -0.4028  -0.4011  -0.3968  -0.3924  -0.3882
 -0.3865  -0.3853  -0.3845  -0.3805  -0.3787  -0.3743  -0.3721  -0.3695
 -0.3664  -0.3647  -0.3633  -0.3613  -0.3572  -0.3565  -0.3509  -0.3499
 -0.3487  -0.3454  -0.3423  -0.3388  -0.3379  -0.3352  -0.3328  -0.3323
 -0.3310  -0.3274  -0.3269  -0.3239  -0.3195  -0.3180  -0.3159  -0.3121
 -0.3099  -0.3079  -0.3054  -0.2864  -0.2847  -0.2828  -0.2804  -0.2644
 -0.2608  -0.2496  -0.2454  -0.2440  -0.2416  -0.2398  -0.2383  -0.2351
 -0.2343  -0.2333  -0.2315  -0.2275  -0.2149  -0.2062  -0.2057  -0.2047
 -0.2024  -0.1886  -0.1557  -0.1547  -0.1433  -0.1385
 -- Virtual --
 -0.0036   0.0016   0.0277   0.0309   0.0321   0.0426   0.0498   0.0587
  0.0598   0.0645   0.0680   0.0742   0.0776   0.0791   0.0809   0.0816
  0.0855   0.0873   0.0918   0.0947   0.0960   0.1021   0.1044   0.1063
  0.1094   0.1151   0.1185   0.1223   0.1254   0.1285   0.1305   0.1320
  0.1388   0.1396   0.1398   0.1422   0.1454   0.1471   0.1525   0.1544
  0.1566   0.1573   0.1621   0.1642   0.1691   0.1731   0.1747   0.1793
  0.1812   0.1829   0.1856   0.1868   0.1896   0.1942   0.1973   0.2000
  0.2059   0.2092   0.2125   0.2140   0.2196   0.2208   0.2253   0.2269
  0.2309   0.2353   0.2378   0.2388   0.2438   0.2446   0.2491   0.2554
  0.2564   0.2601   0.2636   0.2666   0.2677   0.2695   0.2737   0.2780
  0.2835   0.2869   0.2887   0.2902   0.2961   0.2971   0.2990   0.3063
  0.3123   0.3181   0.3291   0.3327   0.3388   0.3416   0.3540   0.3571
  0.3618   0.3719   0.3744   0.3866   0.3916   0.3968   0.4015   0.4035
  0.4076   0.4114   0.4198   0.4213   0.4230   0.4254   0.4329   0.4357
  0.4387   0.4412   0.4441   0.4471   0.4491   0.4540   0.4571   0.4612
  0.4620   0.4677   0.4684   0.4765   0.4798   0.4826   0.4847   0.4860
  0.4891   0.4907   0.4947   0.4967   0.4984   0.5019   0.5032   0.5056
  0.5071   0.5122   0.5147   0.5189   0.5214   0.5253   0.5278   0.5287
  0.5319   0.5330   0.5377   0.5386   0.5406   0.5433   0.5483   0.5531
  0.5574   0.5605   0.5630   0.5676   0.5682   0.5725   0.5768   0.5773
  0.5808   0.5818   0.5856   0.5901   0.5938   0.5945   0.5990   0.6013
  0.6039   0.6062   0.6103   0.6115   0.6132   0.6170   0.6192   0.6198
  0.6235   0.6262   0.6272   0.6305   0.6333   0.6366   0.6398   0.6422
  0.6440   0.6462   0.6467   0.6488   0.6499   0.6512   0.6524   0.6561
  0.6578   0.6604   0.6629   0.6646   0.6665   0.6705   0.6731   0.6747
  0.6755   0.6763   0.6789   0.6810   0.6824   0.6845   0.6886   0.6900
  0.6927   0.6932   0.6987   0.6997   0.7025   0.7035   0.7071   0.7100
  0.7131   0.7135   0.7188   0.7213   0.7244   0.7261   0.7287   0.7321
  0.7361   0.7365   0.7409   0.7422   0.7461   0.7495   0.7536   0.7559
  0.7584   0.7631   0.7657   0.7709   0.7758   0.7803   0.7827   0.7908
  0.7928   0.7980   0.8041   0.8047   0.8079   0.8139   0.8188   0.8244
  0.8249   0.8329   0.8409   0.8463   0.8485   0.8527   0.8603   0.8663
  0.8740   0.8782   0.8791   0.8867   0.8878   0.8944   0.8963   0.9000
  0.9048   0.9091   0.9139   0.9170   0.9225   0.9258   0.9288   0.9316
  0.9348   0.9385   0.9396   0.9427   0.9464   0.9520   0.9566   0.9616
  0.9647   0.9692   0.9712   0.9760   0.9829   0.9839   0.9968   1.0050
  1.0073   1.0096   1.0141   1.0169   1.0227   1.0288   1.0304   1.0351
  1.0444   1.0527   1.0555   1.0568   1.0611   1.0645   1.0701   1.0778
  1.0818   1.0831   1.0853   1.0887   1.0922   1.1015   1.1068   1.1111
  1.1147   1.1212   1.1224   1.1258   1.1303   1.1347   1.1376   1.1421
  1.1453   1.1478   1.1513   1.1551   1.1571   1.1627   1.1672   1.1692
  1.1735   1.1762   1.1790   1.1851   1.1878   1.1924   1.1972   1.2008
  1.2059   1.2093   1.2166   1.2215   1.2261   1.2274   1.2296   1.2326
  1.2372   1.2388   1.2429   1.2454   1.2543   1.2586   1.2599   1.2713
  1.2769   1.2776   1.2811   1.2832   1.2890   1.2928   1.3021   1.3098
  1.3123   1.3165   1.3168   1.3272   1.3361   1.3442   1.3494   1.3499
  1.3541   1.3553   1.3664   1.3713   1.3750   1.3807   1.3834   1.3862
  1.3879   1.3937   1.4001   1.4051   1.4122   1.4150   1.4177   1.4230
  1.4339   1.4397   1.4437   1.4503   1.4510   1.4596   1.4609   1.4684
  1.4699   1.4725   1.4749   1.4788   1.4859   1.4905   1.4968   1.5020
  1.5069   1.5122   1.5196   1.5242   1.5271   1.5315   1.5319   1.5411
  1.5423   1.5457   1.5480   1.5515   1.5526   1.5550   1.5656   1.5673
  1.5726   1.5741   1.5767   1.5842   1.5852   1.5888   1.5915   1.5942
  1.6030   1.6046   1.6102   1.6151   1.6160   1.6176   1.6221   1.6260
  1.6292   1.6300   1.6323   1.6335   1.6378   1.6414   1.6422   1.6437
  1.6474   1.6492   1.6511   1.6540   1.6545   1.6585   1.6594   1.6618
  1.6669   1.6682   1.6712   1.6732   1.6765   1.6786   1.6816   1.6858
  1.6879   1.6893   1.6948   1.6983   1.7011   1.7035   1.7052   1.7082
  1.7114   1.7136   1.7151   1.7160   1.7194   1.7248   1.7263   1.7273
  1.7304   1.7328   1.7328   1.7358   1.7372   1.7400   1.7476   1.7486
  1.7503   1.7535   1.7557   1.7636   1.7648   1.7666   1.7697   1.7711
  1.7746   1.7769   1.7819   1.7840   1.7861   1.7880   1.7918   1.7935
  1.7944   1.7979   1.7986   1.8039   1.8099   1.8123   1.8138   1.8175
  1.8201   1.8240   1.8251   1.8298   1.8364   1.8385   1.8411   1.8462
  1.8494   1.8521   1.8537   1.8595   1.8632   1.8658   1.8707   1.8723
  1.8756   1.8764   1.8820   1.8843   1.8906   1.8938   1.8974   1.9010
  1.9134   1.9149   1.9178   1.9220   1.9263   1.9290   1.9311   1.9324
  1.9419   1.9463   1.9486   1.9496   1.9538   1.9580   1.9606   1.9635
  1.9648   1.9703   1.9723   1.9741   1.9846   1.9870   1.9916   1.9953
  1.9969   2.0071   2.0116   2.0148   2.0172   2.0232   2.0295   2.0333
  2.0426   2.0458   2.0504   2.0551   2.0635   2.0683   2.0731   2.0804
  2.0815   2.0873   2.0918   2.0958   2.0983   2.1010   2.1053   2.1086
  2.1107   2.1178   2.1237   2.1297   2.1369   2.1389   2.1496   2.1529
  2.1560   2.1606   2.1620   2.1696   2.1734   2.1763   2.1840   2.1901
  2.1947   2.1955   2.1974   2.2038   2.2054   2.2096   2.2165   2.2188
  2.2328   2.2367   2.2420   2.2442   2.2465   2.2526   2.2549   2.2558
  2.2602   2.2657   2.2763   2.2806   2.2808   2.2886   2.2902   2.2922
  2.2966   2.3042   2.3055   2.3091   2.3124   2.3192   2.3231   2.3267
  2.3303   2.3389   2.3410   2.3511   2.3601   2.3671   2.3692   2.3722
  2.3775   2.3826   2.3888   2.4023   2.4081   2.4112   2.4221   2.4249
  2.4307   2.4351   2.4387   2.4535   2.4602   2.4633   2.4639   2.4769
  2.4798   2.4830   2.4853   2.4890   2.4957   2.5028   2.5090   2.5142
  2.5165   2.5324   2.5356   2.5396   2.5485   2.5526   2.5581   2.5642
  2.5744   2.5769   2.5854   2.5860   2.5908   2.5943   2.6076   2.6158
  2.6208   2.6328   2.6343   2.6418   2.6463   2.6563   2.6593   2.6645
  2.6773   2.6787   2.6855   2.6915   2.7028   2.7094   2.7138   2.7173
  2.7232   2.7264   2.7372   2.7444   2.7481   2.7487   2.7539   2.7632
  2.7666   2.7704   2.7737   2.7797   2.7860   2.7884   2.7922   2.8055
  2.8069   2.8098   2.8115   2.8199   2.8299   2.8417   2.8502   2.8624
  2.8699   2.8757   2.9077   2.9079   2.9183   2.9227   2.9464   2.9517
  2.9664   2.9800   3.0044   3.0125   3.0205   3.0445   3.0561   3.0588
  3.0763   3.0876   3.0945   3.1007   3.1175   3.1205   3.1219   3.1311
  3.1453   3.1517   3.1558   3.1845   3.1892   3.2034   3.2194   3.2375
  3.2708   3.2841   3.3192   3.3337   3.3939   3.4043   3.4228   3.4345
  3.4585   3.4727   3.4852   3.4921   3.4966   3.5069   3.5110   3.5134
  3.5164   3.5185   3.5211   3.5386   3.5473   3.6242   3.7352   3.7621
  3.8101   3.8586   3.8793
 
 Beta MOs
 -- Occupied --
******** -29.9536 -25.8208 -25.8198 -25.8196 -19.0870 -19.0865 -19.0848
-19.0847 -19.0806 -19.0759 -19.0636 -19.0620 -19.0598 -19.0563 -19.0299
-14.3363 -14.3346 -14.3282 -14.3267 -14.3007 -14.3006 -10.2679 -10.2673
-10.2664 -10.2644 -10.2596 -10.2138 -10.2128 -10.2094 -10.2069 -10.2060
-10.1975 -10.1967 -10.1945 -10.1936 -10.1920 -10.1916 -10.1909 -10.1901
-10.1765 -10.1752 -10.1746 -10.1734 -10.1708 -10.1699 -10.1691 -10.1679
-10.1675 -10.1650 -10.1633 -10.1629 -10.1537 -10.1530 -10.1519 -10.1515
 -3.3231  -2.0876  -2.0876  -2.0859  -1.0240  -1.0236  -1.0235  -1.0207
 -1.0185  -0.9766  -0.9677  -0.9270  -0.9255  -0.9243  -0.9068  -0.9055
 -0.9029  -0.8967  -0.8905  -0.8830  -0.8807  -0.8150  -0.8139  -0.7768
 -0.7732  -0.7538  -0.7507  -0.7426  -0.7179  -0.7159  -0.7121  -0.7019
 -0.6949  -0.6900  -0.6799  -0.6581  -0.6514  -0.6255  -0.6188  -0.6020
 -0.5951  -0.5943  -0.5765  -0.5746  -0.5730  -0.5729  -0.5691  -0.5564
 -0.5556  -0.5550  -0.5529  -0.5380  -0.5081  -0.5014  -0.4984  -0.4814
 -0.4785  -0.4749  -0.4700  -0.4657  -0.4626  -0.4592  -0.4579  -0.4531
 -0.4519  -0.4491  -0.4444  -0.4441  -0.4423  -0.4389  -0.4349  -0.4322
 -0.4301  -0.4259  -0.4180  -0.4165  -0.4145  -0.4139  -0.4087  -0.4058
 -0.4045  -0.4033  -0.3999  -0.3986  -0.3965  -0.3932  -0.3904  -0.3857
 -0.3844  -0.3831  -0.3792  -0.3780  -0.3750  -0.3730  -0.3704  -0.3657
 -0.3648  -0.3622  -0.3583  -0.3564  -0.3505  -0.3491  -0.3474  -0.3450
 -0.3423  -0.3382  -0.3373  -0.3348  -0.3324  -0.3308  -0.3289  -0.3260
 -0.3224  -0.3182  -0.3169  -0.3113  -0.3099  -0.3069  -0.3016  -0.2933
 -0.2885  -0.2822  -0.2773  -0.2707  -0.2600  -0.2511  -0.2465  -0.2437
 -0.2426  -0.2402  -0.2395  -0.2382  -0.2364  -0.2347  -0.2322  -0.2294
 -0.2271  -0.2083  -0.2060  -0.2052  -0.2018  -0.1989  -0.1889  -0.1594
 -0.1539
 -- Virtual --
 -0.0130  -0.0056   0.0001   0.0094   0.0113   0.0299   0.0328   0.0346
  0.0430   0.0521   0.0591   0.0608   0.0646   0.0685   0.0740   0.0774
  0.0792   0.0802   0.0813   0.0834   0.0862   0.0866   0.0888   0.0928
  0.0960   0.0964   0.1035   0.1045   0.1069   0.1098   0.1152   0.1195
  0.1226   0.1258   0.1286   0.1307   0.1321   0.1390   0.1398   0.1400
  0.1424   0.1458   0.1473   0.1528   0.1546   0.1569   0.1576   0.1622
  0.1644   0.1692   0.1734   0.1752   0.1799   0.1814   0.1834   0.1859
  0.1871   0.1897   0.1944   0.1975   0.2003   0.2066   0.2102   0.2130
  0.2152   0.2200   0.2211   0.2255   0.2271   0.2315   0.2358   0.2383
  0.2392   0.2441   0.2450   0.2496   0.2562   0.2569   0.2611   0.2642
  0.2680   0.2690   0.2710   0.2744   0.2790   0.2842   0.2874   0.2899
  0.2905   0.2967   0.2976   0.2993   0.3072   0.3129   0.3187   0.3299
  0.3338   0.3411   0.3445   0.3549   0.3586   0.3632   0.3732   0.3781
  0.3883   0.3933   0.3986   0.4027   0.4086   0.4107   0.4143   0.4203
  0.4222   0.4249   0.4263   0.4354   0.4376   0.4400   0.4423   0.4479
  0.4505   0.4515   0.4574   0.4586   0.4631   0.4632   0.4690   0.4712
  0.4782   0.4813   0.4850   0.4860   0.4879   0.4909   0.4924   0.4969
  0.4989   0.5017   0.5031   0.5044   0.5067   0.5076   0.5136   0.5157
  0.5205   0.5222   0.5272   0.5290   0.5302   0.5327   0.5348   0.5385
  0.5422   0.5441   0.5449   0.5496   0.5540   0.5581   0.5610   0.5635
  0.5679   0.5686   0.5733   0.5773   0.5778   0.5812   0.5825   0.5862
  0.5907   0.5946   0.5951   0.5995   0.6020   0.6043   0.6072   0.6107
  0.6123   0.6138   0.6178   0.6197   0.6205   0.6241   0.6270   0.6276
  0.6313   0.6338   0.6372   0.6405   0.6429   0.6447   0.6465   0.6470
  0.6490   0.6506   0.6517   0.6530   0.6570   0.6590   0.6608   0.6633
  0.6650   0.6669   0.6718   0.6735   0.6750   0.6762   0.6767   0.6792
  0.6813   0.6831   0.6851   0.6892   0.6904   0.6931   0.6955   0.6996
  0.7001   0.7036   0.7063   0.7081   0.7107   0.7135   0.7142   0.7201
  0.7229   0.7247   0.7265   0.7292   0.7326   0.7365   0.7377   0.7419
  0.7427   0.7468   0.7509   0.7544   0.7568   0.7597   0.7640   0.7660
  0.7714   0.7766   0.7806   0.7842   0.7910   0.7935   0.8010   0.8044
  0.8056   0.8103   0.8160   0.8201   0.8263   0.8282   0.8373   0.8444
  0.8490   0.8510   0.8540   0.8638   0.8686   0.8766   0.8794   0.8806
  0.8889   0.8899   0.8960   0.8996   0.9012   0.9070   0.9150   0.9168
  0.9210   0.9249   0.9287   0.9315   0.9343   0.9377   0.9395   0.9437
  0.9441   0.9494   0.9537   0.9600   0.9623   0.9656   0.9721   0.9769
  0.9776   0.9837   0.9877   0.9978   1.0063   1.0079   1.0119   1.0155
  1.0214   1.0241   1.0302   1.0313   1.0366   1.0463   1.0543   1.0569
  1.0590   1.0631   1.0661   1.0735   1.0788   1.0827   1.0839   1.0866
  1.0903   1.0944   1.1030   1.1078   1.1121   1.1161   1.1230   1.1242
  1.1287   1.1322   1.1372   1.1383   1.1430   1.1468   1.1484   1.1524
  1.1565   1.1577   1.1641   1.1682   1.1710   1.1744   1.1777   1.1805
  1.1863   1.1897   1.1935   1.1979   1.2015   1.2072   1.2104   1.2172
  1.2227   1.2275   1.2292   1.2306   1.2336   1.2395   1.2404   1.2438
  1.2472   1.2555   1.2604   1.2612   1.2730   1.2787   1.2796   1.2830
  1.2863   1.2896   1.2945   1.3039   1.3112   1.3148   1.3168   1.3177
  1.3284   1.3399   1.3467   1.3504   1.3544   1.3574   1.3586   1.3682
  1.3729   1.3781   1.3822   1.3847   1.3887   1.3904   1.3992   1.4044
  1.4082   1.4180   1.4214   1.4230   1.4277   1.4357   1.4416   1.4507
  1.4527   1.4572   1.4613   1.4653   1.4703   1.4717   1.4745   1.4791
  1.4820   1.4911   1.4931   1.4995   1.5055   1.5083   1.5162   1.5217
  1.5263   1.5285   1.5323   1.5358   1.5423   1.5440   1.5479   1.5513
  1.5537   1.5550   1.5592   1.5671   1.5697   1.5748   1.5756   1.5792
  1.5852   1.5881   1.5927   1.5940   1.5987   1.6042   1.6077   1.6157
  1.6170   1.6178   1.6203   1.6268   1.6300   1.6318   1.6332   1.6339
  1.6366   1.6402   1.6427   1.6466   1.6474   1.6504   1.6516   1.6540
  1.6562   1.6577   1.6597   1.6614   1.6655   1.6688   1.6723   1.6749
  1.6780   1.6793   1.6820   1.6847   1.6867   1.6896   1.6941   1.6972
  1.6994   1.7031   1.7061   1.7068   1.7109   1.7139   1.7158   1.7163
  1.7179   1.7208   1.7260   1.7284   1.7289   1.7321   1.7337   1.7340
  1.7385   1.7414   1.7417   1.7488   1.7505   1.7522   1.7564   1.7597
  1.7653   1.7666   1.7705   1.7719   1.7752   1.7759   1.7793   1.7836
  1.7869   1.7896   1.7903   1.7935   1.7950   1.7971   1.7992   1.8008
  1.8096   1.8138   1.8151   1.8171   1.8197   1.8231   1.8266   1.8289
  1.8334   1.8386   1.8415   1.8437   1.8480   1.8511   1.8536   1.8548
  1.8602   1.8658   1.8671   1.8736   1.8742   1.8767   1.8778   1.8830
  1.8867   1.8949   1.8976   1.9003   1.9051   1.9150   1.9181   1.9207
  1.9251   1.9296   1.9322   1.9333   1.9356   1.9438   1.9485   1.9508
  1.9532   1.9584   1.9601   1.9621   1.9656   1.9660   1.9730   1.9744
  1.9765   1.9879   1.9897   1.9925   1.9977   2.0002   2.0084   2.0129
  2.0155   2.0188   2.0255   2.0320   2.0358   2.0434   2.0466   2.0516
  2.0568   2.0666   2.0695   2.0761   2.0813   2.0830   2.0899   2.0937
  2.0968   2.0995   2.1022   2.1077   2.1093   2.1113   2.1192   2.1247
  2.1308   2.1375   2.1418   2.1510   2.1547   2.1571   2.1619   2.1658
  2.1714   2.1750   2.1793   2.1862   2.1943   2.1958   2.1969   2.1982
  2.2045   2.2061   2.2116   2.2183   2.2221   2.2334   2.2375   2.2429
  2.2451   2.2492   2.2530   2.2559   2.2574   2.2653   2.2700   2.2773
  2.2809   2.2843   2.2896   2.2906   2.2940   2.2981   2.3052   2.3072
  2.3117   2.3137   2.3216   2.3243   2.3280   2.3333   2.3419   2.3424
  2.3536   2.3608   2.3689   2.3707   2.3747   2.3786   2.3859   2.3922
  2.4066   2.4082   2.4140   2.4223   2.4274   2.4313   2.4359   2.4396
  2.4538   2.4605   2.4634   2.4642   2.4779   2.4815   2.4832   2.4856
  2.4906   2.4971   2.5031   2.5108   2.5168   2.5201   2.5346   2.5369
  2.5433   2.5489   2.5527   2.5591   2.5644   2.5746   2.5813   2.5861
  2.5880   2.5913   2.5990   2.6097   2.6180   2.6232   2.6340   2.6359
  2.6451   2.6512   2.6617   2.6644   2.6706   2.6797   2.6834   2.6911
  2.6934   2.7049   2.7143   2.7202   2.7229   2.7277   2.7303   2.7416
  2.7462   2.7511   2.7538   2.7569   2.7642   2.7676   2.7747   2.7779
  2.7844   2.7865   2.7924   2.7966   2.8061   2.8094   2.8163   2.8178
  2.8287   2.8334   2.8485   2.8597   2.8693   2.8791   2.8846   2.9078
  2.9084   2.9204   2.9301   2.9567   2.9622   2.9789   2.9876   3.0138
  3.0198   3.0255   3.0578   3.0674   3.0864   3.0930   3.1036   3.1077
  3.1202   3.1215   3.1307   3.1343   3.1408   3.1501   3.1804   3.1868
  3.1934   3.2045   3.2334   3.2407   3.2906   3.3161   3.3321   3.3404
  3.3715   3.4137   3.4281   3.4424   3.4596   3.4716   3.4851   3.4897
  3.4991   3.5014   3.5090   3.5124   3.5145   3.5191   3.5221   3.5289
  3.5554   3.5618   3.6321   3.7519   3.7780   3.8950   3.9517   3.9696
 --------------------------------------------------------------
 
          Ground-State Mulliken Net Atomic Charges

     Atom                 Charge (a.u.)    Spin (a.u.)
  --------------------------------------------------------
      1 C                     0.156131       0.008335
      2 C                    -0.055450       0.008072
      3 C                    -0.027029       0.002057
      4 C                    -0.017765       0.004073
      5 C                    -0.051597       0.009066
      6 C                     0.154127       0.009156
      7 H                    -0.063096       0.000291
      8 H                    -0.056981       0.000319
      9 O                    -0.479201       0.113763
     10 C                     0.136632       0.000379
     11 O                    -0.351213       0.000604
     12 N                    -0.145001       0.000453
     13 H                     0.117485       0.000045
     14 C                     0.086998       0.000010
     15 H                     0.015322       0.000020
     16 H                     0.026685       0.000013
     17 C                    -0.024179       0.000038
     18 H                     0.003184       0.000003
     19 H                     0.011639      -0.000001
     20 C                     0.065592       0.000007
     21 H                     0.015509       0.000030
     22 H                    -0.005642      -0.000000
     23 N                    -0.252969       0.000012
     24 H                     0.093162       0.000003
     25 C                    -0.010975       0.000055
     26 H                     0.000477       0.000075
     27 H                    -0.002193       0.000002
     28 C                     0.048384       0.000031
     29 H                    -0.004704      -0.000001
     30 H                     0.044384      -0.000065
     31 C                     0.004095      -0.000007
     32 H                    -0.005100       0.000011
     33 H                    -0.015885       0.000004
     34 C                     0.076118      -0.000012
     35 H                     0.028048       0.000127
     36 H                     0.005619       0.000028
     37 N                    -0.138558       0.000048
     38 H                     0.134660       0.005188
     39 C                     0.108235      -0.000303
     40 O                    -0.368252       0.000131
     41 C                     0.101784       0.000778
     42 H                     0.026021       0.000439
     43 H                     0.014852       0.001460
     44 C                     0.153561       0.002757
     45 H                     0.024627       0.000901
     46 H                    -0.021654       0.001223
     47 C                     0.071608      -0.000053
     48 O                    -0.356823       0.000358
     49 N                    -0.129989       0.000183
     50 C                     0.093149      -0.000006
     51 H                     0.136077       0.000235
     52 C                    -0.035414       0.000015
     53 H                     0.011461       0.000232
     54 H                     0.019485      -0.000015
     55 C                    -0.015803      -0.000000
     56 H                     0.004777       0.000003
     57 H                     0.014043       0.000021
     58 C                     0.079507       0.000003
     59 H                    -0.001965       0.000000
     60 H                     0.008890       0.000012
     61 H                     0.010551      -0.000000
     62 H                    -0.003207       0.000000
     63 C                     0.155364       0.000353
     64 C                    -0.029254       0.004197
     65 O                    -0.346856       0.000588
     66 C                    -0.030984       0.001618
     67 C                    -0.051528       0.009327
     68 C                    -0.048732       0.007820
     69 H                    -0.055385       0.000381
     70 C                     0.148814       0.007637
     71 C                     0.173310       0.008778
     72 H                    -0.060946       0.000267
     73 O                    -0.468042       0.113412
     74 C                    -0.065045       0.008245
     75 O                    -0.515841       0.130477
     76 C                     0.195822       0.010028
     77 O                    -0.429108       0.095430
     78 O                    -0.357073       0.015521
     79 H                    -0.074804       0.000298
     80 O                    -0.464442       0.114584
     81 H                    -0.088158       0.000358
     82 O                    -0.465273       0.109179
     83 Fe                    0.416736       4.190175
     84 N                    -0.268159       0.000001
     85 H                     0.095495      -0.000001
     86 N                    -0.157092       0.000598
     87 H                     0.117775      -0.000008
     88 C                     0.088546      -0.000015
     89 H                     0.027456       0.000007
     90 H                     0.019192       0.000042
     91 C                    -0.023992       0.000036
     92 H                    -0.000803       0.000023
     93 H                     0.006596      -0.000002
     94 C                     0.062724       0.000005
     95 H                     0.018997       0.000001
     96 H                     0.012456       0.000030
  --------------------------------------------------------
  Sum of atomic charges =    -3.000000
  Sum of spin   charges =     5.000000

 -----------------------------------------------------------------
                    Cartesian Multipole Moments
 -----------------------------------------------------------------
    Charge (ESU x 10^10)
               -14.4096
    Dipole Moment (Debye)
         X      -3.4790      Y      -2.2630      Z       0.3276
       Tot       4.1631
    Quadrupole Moments (Debye-Ang)
        XX    -390.5227     XY      -5.5241     YY    -432.5913
        XZ       2.2848     YZ     -24.9848     ZZ    -373.9653
    Octopole Moments (Debye-Ang^2)
       XXX     229.0082    XXY     -28.8604    XYY     -30.4750
       YYY    -200.7470    XXZ     414.7987    XYZ      23.5463
       YYZ      47.0722    XZZ     -71.8961    YZZ      27.3387
       ZZZ     -28.6953
    Hexadecapole Moments (Debye-Ang^3)
      XXXX  -44802.4543   XXXY       4.3727   XXYY   -9897.5727
      XYYY    -149.8666   YYYY  -11621.0604   XXXZ     -86.6488
      XXYZ    -751.9564   XYYZ     150.3092   YYYZ       4.5568
      XXZZ   -8836.3098   XYZZ     -42.0473   YYZZ   -2377.8515
      XZZZ     -73.1876   YZZZ    -135.4480   ZZZZ   -3386.3776
 -----------------------------------------------------------------
 Calculating analytic gradient of the SCF energy
 Gradient of SCF Energy
            1           2           3           4           5           6
    1   0.0592713  -0.0243189  -0.0013637  -0.0769746  -0.0171074   0.0528451
    2  -0.0159924   0.0275691  -0.0047165   0.0252696   0.0204103  -0.0432452
    3  -0.0299055  -0.0041543   0.0038139   0.0451492  -0.0042252   0.0137898
            7           8           9          10          11          12
    1   0.0135100  -0.0463996   0.0069737   0.0484625  -0.0217981  -0.0309177
    2   0.0528034   0.0446531  -0.0542055   0.0059728  -0.0258705   0.0232725
    3  -0.0670309  -0.0291180   0.0680523  -0.1295042   0.1723961   0.0197312
           13          14          15          16          17          18
    1   0.0076536   0.0029752  -0.0218787  -0.0074887   0.0037044  -0.0290286
    2   0.0085561  -0.0133319   0.0177522   0.0024702   0.0021109  -0.0063937
    3  -0.0464852  -0.0179590  -0.0135800   0.0365725   0.0202216  -0.0012670
           19          20          21          22          23          24
    1   0.0139553  -0.0164515   0.0395231  -0.0268233   0.0212389  -0.0200575
    2  -0.0017135   0.0016080   0.0214507  -0.0145265  -0.0161586  -0.0105628
    3  -0.0325234  -0.0434725   0.0255754   0.0249466   0.0298247  -0.0243545
           25          26          27          28          29          30
    1  -0.0090754   0.0441495  -0.0273991  -0.0362010  -0.0074181   0.0322132
    2  -0.0036157   0.0170915  -0.0288213  -0.0268369   0.0254563   0.0316265
    3   0.0270059  -0.0333718  -0.0291413   0.0139871  -0.0424392   0.0347029
           31          32          33          34          35          36
    1   0.0040438   0.0132244  -0.0344513  -0.0017355  -0.0186396   0.0072038
    2   0.0275396  -0.0479638  -0.0110005  -0.0092156   0.0615122  -0.0301368
    3  -0.0080826  -0.0200880   0.0298896  -0.0311124   0.0183959   0.0518241
           37          38          39          40          41          42
    1  -0.0502668   0.0408338   0.0557964  -0.0531489   0.0097739   0.0482122
    2  -0.0436718   0.1037586   0.1117363  -0.1866260   0.0518150  -0.0206846
    3   0.0274686  -0.0306605  -0.0565712   0.0718149  -0.0172442   0.0491215
           43          44          45          46          47          48
    1  -0.0004652  -0.0253430   0.0262224  -0.0061880  -0.0715996   0.0723140
    2  -0.0442732   0.0044724   0.0577196  -0.0441937   0.1220628  -0.1904058
    3  -0.0478755   0.0295077  -0.0382249  -0.0412902  -0.0046642  -0.0004510
           49          50          51          52          53          54
    1   0.0427949   0.0084263  -0.0383339   0.0166639  -0.0359813   0.0096676
    2  -0.0395854   0.0098676   0.0879369  -0.0119247   0.0160183  -0.0514564
    3   0.0136684  -0.0225803  -0.0018859  -0.0137463   0.0439968   0.0077903
           55          56          57          58          59          60
    1   0.0040268   0.0113744  -0.0070055  -0.0218372  -0.0002679  -0.0072959
    2   0.0091838  -0.0099024   0.0501158   0.0208766  -0.0430003   0.0134420
    3   0.0201915   0.0409168  -0.0033586  -0.0108367   0.0025632  -0.0464514
           61          62          63          64          65          66
    1   0.0247298   0.0038038  -0.0342232   0.0783232   0.0033331   0.0056968
    2  -0.0190724  -0.0112074  -0.0250696   0.0346766   0.0179307   0.0129260
    3  -0.0198853   0.0374595  -0.1444243   0.0377146   0.1784081   0.0191994
           67          68          69          70          71          72
    1   0.0221591   0.0210412   0.0586213  -0.0552734  -0.0678197   0.0085143
    2   0.0083719   0.0052077  -0.0000227  -0.0033821  -0.0344284  -0.0253586
    3  -0.0310622  -0.0219232  -0.0411067   0.0394335  -0.0232134  -0.0797153
           73          74          75          76          77          78
    1  -0.0256837  -0.0191566   0.0152045   0.0883761  -0.0703936  -0.0755019
    2   0.0308333   0.0255028  -0.0333564   0.1209500   0.0186807  -0.1458925
    3   0.0717327   0.0243473   0.0269762   0.1598701  -0.0309522  -0.1884830
           79          80          81          82          83          84
    1  -0.0167201   0.0437986  -0.0090733  -0.0127275   0.0205805   0.0531938
    2  -0.0610980   0.0513445   0.0248703  -0.0307364  -0.0151285  -0.0115676
    3   0.0631098  -0.0567165   0.0862828  -0.0734539  -0.0107689  -0.0015246
           85          86          87          88          89          90
    1  -0.0337755   0.0207868  -0.0014399  -0.0036132  -0.0023621   0.0190214
    2   0.0206827   0.0232630  -0.0030794  -0.0145170  -0.0037849   0.0280405
    3   0.0140358   0.0190218  -0.0489436  -0.0163104   0.0375580  -0.0049156
           91          92          93          94          95          96
    1  -0.0077716   0.0283281   0.0067287   0.0032909   0.0186010  -0.0323909
    2  -0.0017702  -0.0042554   0.0055613   0.0101301  -0.0248577   0.0035142
    3   0.0000919   0.0136393  -0.0278223   0.0271356  -0.0148517  -0.0192062
 Max gradient component =       1.904E-01
 RMS gradient           =       4.573E-02
 Computing fast CPCM-SWIG gradient
 Updating gradient with PCM contributions...
 -- total gradient after adding PCM contribution --
---------------------------------------------------
  Atom         X              Y              Z     
---------------------------------------------------
   1       0.030188       0.022834      -0.037907
   2      -0.014488      -0.000500       0.007266
   3       0.002711      -0.006518       0.005720
   4      -0.007118       0.014886      -0.017543
   5      -0.004550       0.006340      -0.003366
   6      -0.000522      -0.032723       0.035332
   7       0.003140       0.004096      -0.005743
   8      -0.007060       0.005356      -0.000711
   9      -0.042890       0.008401       0.034884
  10       0.006083      -0.009720      -0.014717
  11      -0.005913      -0.004874       0.034901
  12       0.005755       0.016083      -0.012736
  13      -0.000573      -0.004431       0.013491
  14      -0.013276      -0.003537      -0.011803
  15       0.003257      -0.002435       0.005059
  16       0.007896       0.000746      -0.008090
  17      -0.005228       0.002521       0.008547
  18       0.003608       0.004417      -0.000508
  19      -0.000255      -0.002563       0.006184
  20      -0.006678      -0.009338      -0.007371
  21       0.001859       0.004585      -0.003981
  22       0.001127      -0.001795      -0.004995
  23       0.000906      -0.003319       0.005176
  24       0.013815       0.010080       0.010885
  25      -0.001356      -0.001207       0.002805
  26      -0.005355      -0.000651       0.001710
  27       0.004745       0.000480       0.000341
  28      -0.005648      -0.008000      -0.009136
  29       0.006775       0.001610       0.000274
  30      -0.007849      -0.001092       0.000530
  31      -0.003188      -0.001438      -0.002122
  32      -0.001774       0.004528       0.003041
  33       0.004400       0.001870      -0.002617
  34      -0.004794      -0.006707       0.003087
  35       0.006295      -0.002657      -0.003766
  36      -0.002288       0.000413      -0.006197
  37       0.011954       0.009561      -0.008342
  38       0.004045       0.009441      -0.000264
  39      -0.004928       0.016947       0.004141
  40      -0.006150      -0.029053       0.008317
  41       0.006157       0.009739      -0.014176
  42      -0.003237       0.002860      -0.004902
  43      -0.000751       0.003290       0.007805
  44      -0.001883       0.001304      -0.008016
  45      -0.009915       0.002870       0.004713
  46       0.006009       0.003368       0.008592
  47      -0.007786       0.010800       0.003024
  48       0.010169      -0.029556       0.002143
  49      -0.000040       0.006170      -0.015154
  50      -0.002754       0.007587       0.011520
  51      -0.005450      -0.011507      -0.001363
  52       0.002295      -0.007017       0.000345
  53       0.002025      -0.002174      -0.001714
  54      -0.003364       0.009069      -0.008173
  55       0.004372      -0.007306       0.006268
  56      -0.000248       0.004651      -0.003332
  57      -0.000006      -0.005551       0.000710
  58      -0.006983       0.006105      -0.000231
  59      -0.002831       0.003408      -0.004303
  60       0.002576      -0.000903       0.004983
  61      -0.001557       0.006693       0.001823
  62      -0.002041       0.001136      -0.003379
  63      -0.008095      -0.012551      -0.016681
  64       0.012865       0.003256      -0.020682
  65       0.002169       0.003412       0.036656
  66      -0.003053       0.000716       0.011492
  67       0.006836      -0.002703      -0.008499
  68       0.012296       0.004802       0.004021
  69       0.012988       0.002809      -0.001160
  70      -0.017896       0.015524       0.048349
  71      -0.020405      -0.024765      -0.044096
  72      -0.001539      -0.002840      -0.006791
  73       0.048456       0.023866       0.022059
  74       0.014165       0.016651       0.036788
  75      -0.006534      -0.040983      -0.001953
  76      -0.029972       0.035506      -0.006204
  77      -0.002117      -0.070908      -0.031367
  78       0.000590      -0.020986      -0.017187
  79      -0.001981      -0.002013       0.004708
  80      -0.038077       0.041313      -0.012178
  81       0.001407       0.002052       0.005020
  82       0.046271       0.017149      -0.031841
  83       0.014617      -0.014312       0.023724
  84       0.005262      -0.001980       0.005384
  85       0.011165      -0.012040      -0.011360
  86      -0.007205       0.012049      -0.011339
  87      -0.003947      -0.002719       0.011324
  88       0.011769      -0.006102      -0.000986
  89      -0.007065       0.004208      -0.009844
  90      -0.001765      -0.003932       0.002574
  91       0.000266      -0.002421      -0.006058
  92      -0.004454      -0.000297      -0.002033
  93       0.001430      -0.000667       0.004681
  94      -0.001435       0.008090       0.003353
  95      -0.005208       0.000668       0.006919
  96       0.006756       0.002469      -0.003755
---------------------------------------------------
 Number of fixed atoms: 0
 Gradient time:  CPU 40372.29 s  wall 2114.92 s

 *****************************************************
             Starting BFGS Algorithm
 *****************************************************
            LIBOPT3 RUN PARAMETERS

  Geometry Optimization Coordinates :
	Delocalized Natural Internal Coordinates

  Step Length Selection Method :
	Eigenvector Following Algorithm

  Convergence Criteria :
	Max Gradient Component    	3.00000000e-04
	Max Displacement Component	1.20000000e-03
	Absolute Energy Difference	1.00000000e-06

  Initial Hessian :
	Approximate Hessian - Simple Internal Coordinate Scaled

  Type of Verification :
	Verify with final updated Hessian
 *****************************************************

	OPTIMIZATION CYCLE:	1

 Scaling Magnitude of Eigenvalues
 	Minimum: -25.00000000	 Maximum: 25.00000000
 282 Hessian Eigenvalues to form next step
   0.10000000   0.10000000   0.10000000   0.10000000   0.10000000
   0.10000000   0.10000000   0.10000000   0.10000000   0.10000000
   0.10000000   0.10000000   0.10000000   0.10000000   0.10000000
   0.10000000   0.10000007   0.10000019   0.10000045   0.10000072
   0.10000109   0.10000291   0.10000508   0.10001187   0.10001300
   0.10001305   0.10001458   0.10002355   0.10002743   0.10003346
   0.10003723   0.10003782   0.10005001   0.10005264   0.10006246
   0.10007682   0.10007983   0.10009628   0.10009937   0.10010276
   0.10014657   0.10020945   0.10023210   0.10023390   0.10050286
   0.10099551   0.10132045   0.10382676   0.10487063   0.10616739
   0.10751025   0.10879335   0.10911608   0.11190312   0.11239781
   0.11520254   0.11547792   0.11581988   0.11819431   0.11906823
   0.11978129   0.12017336   0.12049230   0.12069432   0.12165538
   0.12198568   0.12227107   0.12270481   0.12379914   0.12476978
   0.12521284   0.12581441   0.12606208   0.12695010   0.12740021
   0.12755133   0.12784916   0.12805116   0.12840267   0.12912012
[...]
  30       0.000008      -0.000006       0.000010
  31      -0.000054       0.000042      -0.000001
  32       0.000014       0.000012      -0.000030
  33       0.000006      -0.000029       0.000002
  34       0.000030      -0.000031       0.000029
  35       0.000014       0.000015      -0.000030
  36      -0.000012       0.000011       0.000008
  37      -0.000028      -0.000015      -0.000072
  38      -0.000002       0.000001       0.000001
  39       0.000014      -0.000005       0.000013
  40       0.000006       0.000009       0.000006
  41      -0.000033       0.000008       0.000037
  42       0.000005      -0.000042      -0.000012
  43       0.000002       0.000009      -0.000035
  44       0.000007       0.000021       0.000059
  45      -0.000005      -0.000004      -0.000021
  46       0.000017      -0.000003      -0.000020
  47      -0.000050       0.000015       0.000005
  48       0.000010      -0.000033      -0.000015
  49      -0.000008       0.000058      -0.000021
  50       0.000037      -0.000031      -0.000056
  51       0.000004      -0.000016       0.000015
  52      -0.000007       0.000066       0.000012
  53      -0.000002      -0.000028       0.000023
  54      -0.000016      -0.000007       0.000006
  55       0.000009       0.000003       0.000007
  56      -0.000009      -0.000016       0.000012
  57      -0.000006      -0.000024      -0.000037
  58       0.000055      -0.000009      -0.000069
  59      -0.000013      -0.000014       0.000023
  60      -0.000007      -0.000024      -0.000010
  61       0.000004      -0.000008       0.000006
  62      -0.000020      -0.000021       0.000005
  63      -0.000013      -0.000031      -0.000015
  64       0.000037      -0.000012       0.000002
  65      -0.000008       0.000009       0.000001
  66       0.000038       0.000019       0.000043
  67      -0.000068      -0.000021       0.000026
  68      -0.000052      -0.000011      -0.000020
  69      -0.000013       0.000006      -0.000009
  70      -0.000000       0.000014       0.000057
  71       0.000014      -0.000009      -0.000014
  72       0.000018       0.000023       0.000011
  73       0.000005      -0.000026      -0.000040
  74       0.000011      -0.000000      -0.000068
  75       0.000027       0.000039       0.000062
  76      -0.000008      -0.000011      -0.000004
  77      -0.000033       0.000048       0.000014
  78       0.000004       0.000021       0.000002
  79      -0.000027       0.000006      -0.000005
  80       0.000016      -0.000025       0.000015
  81       0.000029      -0.000003      -0.000002
  82       0.000075      -0.000024      -0.000019
  83       0.000013       0.000044      -0.000032
  84      -0.000035       0.000029       0.000016
  85      -0.000001      -0.000019       0.000015
  86       0.000006       0.000007       0.000037
  87       0.000005       0.000008       0.000010
  88      -0.000016      -0.000021      -0.000073
  89       0.000018       0.000006       0.000030
  90       0.000007       0.000001       0.000035
  91      -0.000020      -0.000023       0.000039
  92       0.000011      -0.000001      -0.000011
  93       0.000009       0.000006      -0.000002
  94       0.000020      -0.000031       0.000052
  95      -0.000013      -0.000009      -0.000021
  96      -0.000001       0.000006      -0.000004
---------------------------------------------------
 Number of fixed atoms: 0
 Gradient time:  CPU 32844.32 s  wall 1799.51 s

     Step 48	:
        Energy is -3742.9424537963
                            Maximum         Tolerance       Converged?
         Gradient           6.80649339e-05	3.00000000e-04	true
         Displacement       2.15119258e-03	1.20000000e-03	false
         Energy change      7.54180292e-07	1.00000000e-06	true

	 Optimization Converged in 48 cycles

 *****************************************************
             End of BFGS Algorithm
 *****************************************************
		----------------------------------
		   Verification of Optimization
		----------------------------------

 Eigenvalues of Hessian in Optimization Verification
   0.00178978   0.00315944   0.00522321   0.00552939   0.01034510
   0.01129420   0.02199308   0.02764256   0.03678196   0.04721508
   0.06156617   0.08591989   0.09715366   0.10000116   0.10000227
   0.10000270   0.10000377   0.10000645   0.10000678   0.10000900
   0.10001061   0.10001394   0.10001587   0.10002235   0.10002397
   0.10003085   0.10003453   0.10003830   0.10004127   0.10004759
   0.10005373   0.10005708   0.10007082   0.10008466   0.10009228
   0.10011300   0.10012909   0.10014783   0.10018265   0.10023990
   0.10033452   0.10042370   0.10057660   0.10084438   0.10092834
   0.10157869   0.10225869   0.10271957   0.10336517   0.10448965
   0.10476228   0.10520699   0.10779621   0.10824990   0.10951489
   0.11118483   0.11308280   0.11370249   0.11522100   0.11621967
   0.11809140   0.11879248   0.11975652   0.11999149   0.12062408
   0.12115247   0.12157715   0.12248892   0.12293305   0.12412158
   0.12464231   0.12545636   0.12613342   0.12646000   0.12667123
   0.12741078   0.12767993   0.12796787   0.12860164   0.12906246
   0.12949724   0.12978255   0.13029087   0.13101452   0.13151935
   0.13196469   0.13310254   0.13332795   0.13738709   0.13961756
   0.14027675   0.14373365   0.14632980   0.14921389   0.14942273
   0.15013138   0.15051439   0.15077323   0.15132091   0.15170971
   0.15184286   0.15264252   0.15303354   0.15421670   0.15497813
   0.15531278   0.15652302   0.15694536   0.15756862   0.15826059
   0.15943030   0.15981061   0.16309924   0.16641479   0.16975989
   0.17049529   0.17233305   0.17430422   0.17553851   0.17590302
   0.17630936   0.17671727   0.17718832   0.17794713   0.17817881
   0.17924589   0.17940304   0.18017813   0.18099717   0.18224445
   0.18251489   0.18343961   0.18510553   0.18811488   0.19012281
   0.19160175   0.19342390   0.19584445   0.19689941   0.19796001
   0.19857612   0.19894114   0.19935313   0.19945436   0.19957542
   0.19968446   0.19970288   0.19976054   0.19981349   0.19983567
   0.19990241   0.19990911   0.19995075   0.19998102   0.20000392
   0.20002444   0.20017015   0.20018551   0.20022938   0.20049963
   0.20101900   0.20138674   0.20253204   0.20291431   0.20398344
   0.20574644   0.20758850   0.21197496   0.21498232   0.21823414
   0.22043496   0.23078871   0.23219562   0.23910055   0.25074675
   0.25711616   0.26524721   0.27610034   0.28597496   0.29096289
   0.32394786   0.34753615   0.36852339   0.38963421   0.40291386
   0.41281210   0.42154419   0.43067334   0.44788970   0.45410638
   0.45810744   0.46196034   0.46542497   0.47507228   0.47847806
   0.48420057   0.48771842   0.48926552   0.49131859   0.49241994
   0.49379862   0.49468951   0.49569788   0.49678113   0.49815707
   0.49891505   0.49924155   0.49941528   0.49963783   0.49978187
   0.49981184   0.49992659   0.49994690   0.49997867   0.49998971
   0.49999722   0.50000000   0.50000000   0.50000000   0.50000000
   0.50000000   0.50000000   0.50000000   0.50000000   0.50000000
   0.50000000   0.50000000   0.50000000   0.50000000   0.50000000
   0.50000000   0.50000000   0.50000000   0.50000000   0.50000000
   0.50000000   0.50000000   0.50000000   0.50000000   0.50000000
   0.50000000   0.50000016   0.50000022   0.50000049   0.50000065
   0.50000166   0.50000235   0.50000311   0.50000451   0.50000557
   0.50000664   0.50000957   0.50001104   0.50001811   0.50003074
   0.50003788   0.50007740   0.50009032   0.50011456   0.50017913
   0.50033325   0.50038080   0.50045619   0.50118514   0.50164236
   0.50237395   0.50364567   0.50379400   0.50676286   0.50839762
   0.50959975   0.51077794   0.51307925   0.51669205   0.51972029
   0.54212284   0.54989278   0.56119023   0.56783086   0.58036001
   0.58700994   0.70013915

 Found a minimum
		---------------------------------
		       End of Verification
		---------------------------------

 Final energy is -3742.942453796311

	******************************
	**  OPTIMIZATION CONVERGED  **
	******************************
 Adding empirical dispersion correction 
 ----------------------------------------------------------------
 Doing -D3(BJ) with
 s6  =   1.00000
 s8  =   1.98890
 a1  =   0.39810
 a2  =   4.42110
 -D3 energy without 3body term =     -0.2422906406 hartrees
 ----------------------------------------------------------------
             Standard Nuclear Orientation (Angstroms)
    I     Atom           X                Y                Z
 ----------------------------------------------------------------
    1      C       2.6223359777    -2.4122240864     0.8847781398
    2      C       3.6963468447    -3.1931240401     1.3520745445
    3      C       4.9262872972    -3.2011628005     0.6783431304
    4      C       5.0908693083    -2.4662509542    -0.5054714149
    5      C       3.9967195843    -1.7378183332    -1.0267944270
    6      C       2.7883518086    -1.6575648676    -0.3350600770
    7      H       3.5603715462    -3.7746450549     2.2687980961
    8      H       5.7524936177    -3.7945058537     1.0776046089
    9      O       1.7629443652    -0.8992572938    -0.7079232673
   10      C       6.4057446922    -2.2825394679    -1.1735890544
   11      O       6.5144260166    -2.0084064746    -2.3811056105
   12      N       7.4942653647    -2.3645714828    -0.3493986470
   13      H       7.3037364364    -2.3840850512     0.6462387271
   14      C       8.8232227370    -1.9178640672    -0.7353264949
   15      H       9.5642506598    -2.6109366273    -0.3043173682
   16      H       8.8888858357    -1.9952692353    -1.8295510364
   17      C       9.1356425103    -0.4841341888    -0.2781538765
   18      H      10.2186072332    -0.3242818768    -0.4191642292
   19      H       8.9555556074    -0.4066209180     0.8096821719
   20      C       8.3504150329     0.6434867527    -1.0108191353
   21      H       7.7957490722     0.2097116159    -1.8583440984
   22      H       9.0828420116     1.3467651547    -1.4414503685
   23      N       7.4022103740     1.4392111572    -0.2287983350
   24      H       7.8689028326     1.7921361119     0.6098792162
   25      C       5.1249306931     1.7377987587     0.6974178937
   26      H       4.2639820628     1.1693705344     1.0901860433
   27      H       5.5605282435     2.2758088797     1.5585117098
   28      C       6.1683942729     0.7541052085     0.1550301994
   29      H       6.3239361735    -0.0610121894     0.8908180413
   30      H       5.7700625417     0.2742497401    -0.7502832855
   31      C       4.6514840762     2.7400675443    -0.3635897908
   32      H       4.2771525496     3.6644676191     0.0998880472
   33      H       5.5242223102     3.0217970173    -0.9754550951
   34      C       3.5505633306     2.2050170000    -1.2929443354
   35      H       3.7712408687     1.1746636822    -1.6037832932
   36      H       3.5122041414     2.8318776463    -2.1994952665
   37      N       2.2245167645     2.1939622599    -0.6811555854
   38      H       1.7295701848     1.3051820123    -0.5675121639
   39      C       1.5482155888     3.3506092218    -0.4981894161
   40      O       2.0395256650     4.4554816490    -0.7821203802
   41      C       0.1359171853     3.2778242019     0.0646527859
   42      H      -0.5546008228     3.4215142018    -0.7842443807
   43      H       0.0308734094     4.1556076624     0.7170973536
   44      C      -1.6789833570     2.2093642684     1.4650934811
   45      H      -1.9429168100     1.2694221755     1.9733639187
   46      H      -1.6400604480     3.0194083122     2.2048738479
   47      C      -2.7525470596     2.5545311216     0.4425955871
   48      O      -3.4366532893     3.5851784894     0.5181546744
   49      N      -2.8720256396     1.6430903584    -0.5573929957
   50      C      -3.5428453068     1.9518854189    -1.8171118256
   51      H      -2.0645270973     1.0033618358    -0.5910345163
   52      C      -4.9718488879     1.4195006417    -1.9645882033
   53      H      -2.9212144666     1.5222540845    -2.6186380949
   54      H      -3.5479157334     3.0474997445    -1.9482902493
   55      C      -6.0122657687     2.1046539981    -1.0736639787
   56      H      -5.2595524568     1.5824170930    -3.0208764811
   57      H      -4.9826665692     0.3286192322    -1.8077331144
   58      C      -7.4611209340     1.8348180996    -1.5194296916
   59      H      -5.8469371524     3.1961786640    -1.1055508793
   60      H      -5.8715945869     1.8078574827    -0.0203700672
   61      H      -8.1381435406     2.5134501250    -0.9710325668
   62      H      -7.5467496999     2.1065365974    -2.5877987537
   63      C      -5.9585988401    -2.2269959977    -0.6502324704
   64      C      -4.7160179567    -2.0559974103     0.1378652959
   65      O      -6.0106600445    -1.9606937492    -1.8689455687
   66      C      -4.7482846470    -1.7377592312     1.5055205662
   67      C      -3.4707570743    -2.0869788627    -0.5368655102
   68      C      -3.5651549798    -1.4341383903     2.1913043111
   69      H      -5.6984478792    -1.6636199471     2.0389431996
   70      C      -2.2768223618    -1.8105955526     0.1307889482
   71      C      -2.3248765796    -1.4483656550     1.5303688811
   72      H      -3.5929195787    -1.1460465913     3.2461466569
   73      O      -1.0759400721    -1.8208236777    -0.4344450342
   74      C      -0.2733991716     1.9964655768     0.8149559516
   75      O      -0.2988838512     0.9069931699    -0.0594790144
   76      C       0.7270304649     1.7342189250     1.9786806813
   77      O       1.1692785685     0.5255108420     2.0567942284
   78      O       1.0316990235     2.6596718188     2.7493079233
   79      H       4.1316049816    -1.1598762891    -1.9432258805
   80      O       1.4589518882    -2.3058559126     1.4945028591
   81      H      -3.4483237157    -2.3130988363    -1.6053933883
   82      O      -1.1837608516    -1.1210305494     2.0992966868
   83      Fe      0.2894880789    -0.8306962879     0.6968927512
   84      N      -7.9878585892     0.4762689946    -1.3609631119
   85      H      -7.3435530083    -0.1903495262    -1.7950857384
   86      N      -7.0620686895    -2.6765543728     0.0190840712
   87      H      -6.9602949037    -2.8504359703     1.0129285296
   88      C      -8.4114775342    -2.4309278862    -0.4692895481
   89      H      -8.3391627067    -2.3213812303    -1.5593385678
   90      H      -9.0388976911    -3.3121217399    -0.2628449842
   91      C      -9.0413546442    -1.1814470322     0.1647244623
   92      H     -10.0260596570    -1.0155605669    -0.3056953073
   93      H      -9.2187345092    -1.3735851490     1.2377645324
   94      C      -8.1943429212     0.0866059459     0.0355286089
   95      H      -8.7292332102     0.9123119262     0.5357083300
   96      H      -7.2467965389    -0.0500308964     0.5957438818
 ----------------------------------------------------------------
 Nuclear Repulsion Energy =        8308.88812936 hartrees
 There are      206 alpha and      201 beta electrons

Z-matrix Print:
$molecule
-3 6
Fe
O  1 1.984400
C  2 1.397224 1 116.030386
C  3 1.540251 2 110.405424 1 144.118726 0
H  4 1.098737 3 110.484148 2 172.669744 0
H  4 1.103670 3 108.464912 2 55.643900 0
C  4 1.522063 3 117.807315 2 -65.797468 0
O  7 1.242073 4 119.610429 3 -160.746639 0
N  7 1.352291 4 118.240919 3 19.731124 0
H  9 1.023629 7 119.065502 4 8.729431 0
C  9 1.460413 7 120.285324 4 176.308946 0
H  11 1.098612 9 107.086548 7 -163.827668 0
H  11 1.102842 9 108.486079 7 -47.598397 0
C  11 1.536882 9 113.562173 7 73.641371 0
H  14 1.099751 11 107.677017 9 -46.549141 0
H  14 1.102462 11 108.688700 9 -161.858850 0
C  14 1.534416 11 114.315343 9 77.622762 0
H  17 1.103907 14 109.982119 11 -39.219904 0
H  17 1.104845 14 110.028944 11 -156.010046 0
C  17 1.533184 14 112.610586 11 82.619177 0
H  20 1.099328 17 108.952581 14 -53.364766 0
H  20 1.109051 17 109.408788 14 -168.882697 0
N  20 1.462531 17 111.496576 14 64.628433 0
H  23 1.022613 20 109.355894 17 68.452028 0
C  23 1.464181 20 115.589433 17 -167.761927 0
H  25 1.101868 23 107.383547 20 51.461864 0
H  25 1.102947 23 106.980787 20 165.531014 0
C  3 1.556884 2 110.375616 1 22.938978 0
O  28 1.242237 3 119.722996 2 169.703859 0
O  28 1.289442 3 115.060144 2 -10.769664 0
C  25 1.557212 23 117.956130 20 -72.484016 0
H  31 1.103743 25 109.255210 23 -124.334743 0
H  31 1.105363 25 109.275161 23 -8.788825 0
C  31 1.536943 25 115.661013 23 114.580072 0
H  34 1.098922 31 110.471732 25 50.352730 0
H  34 1.102380 31 109.484010 25 168.859339 0
N  34 1.454172 31 113.165493 25 -69.967293 0
H  37 1.013891 34 115.993238 31 -60.386010 0
C  37 1.367807 34 123.294979 31 95.159571 0
O  39 1.243003 37 121.938297 34 11.177217 0
C  39 1.486280 37 115.198661 34 -165.447784 0
C  41 1.403068 39 123.215828 37 -26.119242 0
H  42 1.092741 41 120.264998 39 -9.035938 0
C  42 1.402402 41 120.345529 39 171.670629 0
H  44 1.094092 42 120.562728 41 179.247561 0
C  44 1.407718 42 120.852259 41 -2.385371 0
O  46 1.317779 44 124.384267 42 -176.827383 0
C  41 1.414056 39 117.073442 37 146.913142 0
H  48 1.091814 41 119.113474 39 6.128993 0
C  48 1.394665 41 121.144263 39 -168.563797 0
O  50 1.328728 48 124.214593 41 173.915311 0
C  3 1.563225 2 110.492016 1 -95.023712 0
H  52 1.097707 3 110.420309 2 175.963504 0
H  52 1.100677 3 106.939329 2 57.364814 0
C  52 1.522229 3 112.684572 2 -63.068194 0
O  55 1.239332 52 122.473956 3 -123.347178 0
N  55 1.358299 52 113.853545 3 55.788810 0
H  57 1.030746 55 111.813180 52 -14.625963 0
C  57 1.460221 55 122.250842 52 -162.000067 0
H  59 1.101568 57 106.618155 55 137.254779 0
H  59 1.103451 57 108.338922 55 21.632793 0
C  59 1.532069 57 115.979456 55 -101.558407 0
H  62 1.102154 59 109.840048 57 -55.721870 0
H  62 1.106824 59 106.449234 57 -170.287981 0
C  62 1.531551 59 114.971851 57 69.897239 0
H  65 1.103315 62 110.388639 59 -71.869497 0
H  65 1.104435 62 108.883407 59 44.008173 0
C  65 1.539708 62 113.105409 59 163.823713 0
H  68 1.104373 65 108.990441 62 -168.582569 0
H  68 1.105701 65 108.031795 62 -53.437698 0
N  68 1.465681 65 117.989854 62 68.944397 0
H  71 1.023705 68 109.362645 65 -52.169596 0
C  71 1.464467 68 113.603246 65 69.400966 0
H  73 1.103666 71 107.543532 68 47.436982 0
H  73 1.109214 71 113.200120 68 -69.427870 0
C  73 1.530385 71 112.272168 68 166.428144 0
H  76 1.103837 73 109.465061 71 -59.189878 0
H  76 1.104444 73 108.364238 71 -175.878818 0
C  76 1.536204 73 114.340633 71 62.358363 0
H  79 1.097924 76 110.830662 73 -65.767810 0
H  79 1.101262 76 109.867843 73 175.367466 0
N  79 1.455935 76 112.259457 73 53.548433 0
H  82 1.014061 79 116.788407 76 61.469386 0
C  82 1.366650 79 121.909159 76 -94.776043 0
O  84 1.248555 82 120.966567 79 -22.182249 0
C  84 1.481332 82 117.046078 79 157.026951 0
C  86 1.404563 84 121.663140 82 -29.531389 0
H  87 1.092175 86 120.726207 84 3.520332 0
C  87 1.400814 86 120.424518 84 -172.782014 0
H  89 1.093828 87 120.514736 86 177.472275 0
C  89 1.405464 87 120.858457 86 -0.345689 0
O  91 1.316424 89 124.000317 87 177.118999 0
C  86 1.416650 84 118.778555 82 156.687124 0
H  93 1.092422 86 119.238529 84 -4.739428 0
C  93 1.395575 86 121.320343 84 174.071698 0
O  95 1.327295 93 124.664936 86 179.987420 0
$end

 -----------------------------------------------------------------------
                  END OF GEOMETRY OPTIMIZER USING LIBOPT3               
 -----------------------------------------------------------------------
 Total job time:  234395.53s(wall), 3647368.09s(cpu) 
 Fri Jun  2 07:28:22 2023

        *************************************************************
        *                                                           *
        *  Thank you very much for using Q-Chem.  Have a nice day.  *
        *                                                           *
        *************************************************************


