
Running Job 1 of 1 C_FePB_ctL_3sextet_b3lypD3bj_ccpVDZ_pcmH2O_opt.in
qchem C_FePB_ctL_3sextet_b3lypD3bj_ccpVDZ_pcmH2O_opt.in_1875489.0 /data/scratch/C_FePB_ctL_3sextet_b3lypD3bj_ccpVDZ_pcmH2O_opt20231215123638/ 0
/opt/qchem/6.0.1/exe/qcprog.exe_s C_FePB_ctL_3sextet_b3lypD3bj_ccpVDZ_pcmH2O_opt.in_1875489.0 /data/scratch/C_FePB_ctL_3sextet_b3lypD3bj_ccpVDZ_pcmH2O_opt20231215123638/
                  Welcome to Q-Chem
     A Quantum Leap Into The Future Of Chemistry


 Q-Chem 6.0, Q-Chem, Inc., Pleasanton, CA (2022)

 E. Epifanovsky,  A. T. B. Gilbert,  Xintian Feng,  Joonho Lee,  Yuezhi Mao,  
 N. Mardirossian,  P. Pokhilko,  A. White,  M. Wormit,  M. P. Coons,  
 A. L. Dempwolff,  Zhengting Gan,  D. Hait,  P. R. Horn,  L. D. Jacobson,  
 I. Kaliman,  J. Kussmann,  A. W. Lange,  Ka Un Lao,  D. S. Levine,  Jie Liu,  
 S. C. McKenzie,  A. F. Morrison,  K. Nanda,  F. Plasser,  D. R. Rehn,  
 M. L. Vidal,  Zhi-Qiang You,  Ying Zhu,  B. Alam,  B. Albrecht,  
 A. Aldossary,  E. Alguire,  J. H. Andersen,  V. Athavale,  D. Barton,  
 K. Begam,  A. Behn,  N. Bellonzi,  Y. A. Bernard,  E. J. Berquist,  
 H. Burton,  A. Carreras,  K. Carter-Fenk,  Romit Chakraborty,  
 Chandrima Chakravarty,  Junhan Chen,  A. D. Chien,  K. D. Closser,  
 V. Cofer-Shabica,  L. Cunha,  S. Dasgupta,  Jia Deng,  M. de Wergifosse,  
 M. Diedenhofen,  Hainam Do,  S. Ehlert,  Po-Tung Fang,  S. Fatehi,  
 Qingguo Feng,  T. Friedhoff,  B. Ganoe,  J. Gayvert,  Qinghui Ge,  
 G. Gidofalvi,  M. Goldey,  J. Gomes,  C. Gonzalez-Espinoza,  S. Gulania,  
 A. Gunina,  J. A. Gyamfi,  M. W. D. Hanson-Heine,  P. H. P. Harbach,  
 A. W. Hauser,  M. F. Herbst,  M. Hernandez Vera,  M. Hodecker,  
 Z. C. Holden,  S. Houck,  Xunkun Huang,  Kerwin Hui,  B. C. Huynh,  
 K. Ikeda,  M. Ivanov,  Hyunjun Ji,  Zuxin Jin,  Hanjie Jiang,  B. Kaduk,  
 S. Kaehler,  R. Kang,  K. Khistyaev,  Jaehoon Kim,  Yongbin Kim,  
 P. Klunzinger,  Z. Koczor-Benda,  Joong Hoon Koh,  D. Kosenkov,  
 Saikiran Kotaru,  L. Koulias,  T. Kowalczyk,  C. M. Krauter,  K. Kue,  
 A. Kunitsa,  T. Kus,  A. Landau,  K. V. Lawler,  D. Lefrancois,  S. Lehtola,  
 Rain Li,  Shaozhi Li,  Yi-Pei Li,  Jiashu Liang,  M. Liebenthal,  
 Hung-Hsuan Lin,  You-Sheng Lin,  Fenglai Liu,  Kuan-Yu Liu,  
 M. Loipersberger,  A. Luenser,  C. Malbon,  A. Manjanath,  P. Manohar,  
 E. Mansoor,  S. F. Manzer,  Shan-Ping Mao,  A. V. Marenich,  T. Markovich,  
 S. Mason,  F. Matz,  S. A. Maurer,  P. F. McLaughlin,  M. F. S. J. Menger,  
 J.-M. Mewes,  S. A. Mewes,  P. Morgante,  Mohammad Mostafanejad,  
 J. W. Mullinax,  K. J. Oosterbaan,  G. Paran,  V. Parravicini,  
 Alexander C. Paul,  Suranjan K. Paul,  F. Pavosevic,  Zheng Pei,  S. Prager,  
 E. I. Proynov,  E. Ramos,  B. Rana,  A. E. Rask,  A. Rettig,  R. M. Richard,  
 F. Rob,  E. Rossomme,  T. Scheele,  M. Scheurer,  M. Schneider,  
 P. E. Schneider,  N. Sergueev,  S. M. Sharada,  Hengyuan Shen,  
 W. Skomorowski,  D. W. Small,  C. J. Stein,  Yingli Su,  Yu-Chuan Su,  
 E. J. Sundstrom,  Zhen Tao,  J. Thirman,  Hung-Yi Tsai,  T. Tsuchimochi,  
 N. M. Tubman,  C. Utku,  S. P. Veccham,  O. Vydrov,  J. Wenzel,  
 Jonathan Wong,  J. Witte,  A. Yamada,  Chou-Hsun Yang,  Kun Yao,  
 S. Yeganeh,  S. R. Yost,  A. Zech,  F. Zeller,  Igor Ying Zhang,  
 Xing Zhang,  Yu Zhang,  D. Zuev,  A. Aspuru-Guzik,  A. T. Bell,  
 N. A. Besley,  K. B. Bravaya,  B. R. Brooks,  D. Casanova,  Jeng-Da Chai,  
 Hsing-Ta Chen,  S. Coriani,  C. J. Cramer,  A. E. DePrince, III,  
 R. A. DiStasio Jr.,  A. Dreuw,  B. D. Dunietz,  T. R. Furlani,  
 W. A. Goddard III,  S. Grimme,  S. Hammes-Schiffer,  T. Head-Gordon,  
 W. J. Hehre,  Chao-Ping Hsu,  T.-C. Jagau,  Yousung Jung,  A. Klamt,  
 Jing Kong,  D. S. Lambrecht,  Xiangyuan Li,  WanZhen Liang,  N. J. Mayhall,  
 C. W. McCurdy,  J. B. Neaton,  T. Neudecker,  C. Ochsenfeld,  
 J. A. Parkhill,  R. Peverati,  V. A. Rassolov,  Haisheng Ren,  Yihan Shao,  
 L. V. Slipchenko,  R. P. Steele,  J. E. Subotnik,  A. J. W. Thom,  
 A. Tkatchenko,  D. G. Truhlar,  T. Van Voorhis,  Fan Wang,  
 T. A. Wesolowski,  K. B. Whaley,  H. L. Woodcock III,  P. M. Zimmerman,  
 S. Faraji,  P. M. W. Gill,  M. Head-Gordon,  J. M. Herbert,  A. I. Krylov

 Contributors to earlier versions of Q-Chem not listed above: 
 R. D. Adamson,  B. Austin,  R. Baer,  J. Baker,  G. J. O. Beran,  
 K. Brandhorst,  S. T. Brown,  E. F. C. Byrd,  Arup K. Chakraborty,  
 G. K. L. Chan,  Chun-Min Chang,  Yunqing Chen,  C.-L. Cheng,  
 Siu Hung Chien,  D. M. Chipman,  D. L. Crittenden,  H. Dachsel,  
 R. J. Doerksen,  A. D. Dutoi,  R. G. Edgar,  J. Fosso-Tande,  
 L. Fusti-Molnar,  D. Ghosh,  A. Ghysels,  A. Golubeva-Zadorozhnaya,  
 J. Gonthier,  M. S. Gordon,  S. R. Gwaltney,  G. Hawkins,  J. E. Herr,  
 A. Heyden,  S. Hirata,  E. G. Hohenstein,  G. Kedziora,  F. J. Keil,  
 C. Kelley,  Jihan Kim,  R. A. King,  R. Z. Khaliullin,  P. P. Korambath,  
 W. Kurlancheek,  A. Laurent,  A. M. Lee,  M. S. Lee,  S. V. Levchenko,  
 Ching Yeh Lin,  D. Liotard,  E. Livshits,  R. C. Lochan,  I. Lotan,  
 L. A. Martinez-Martinez,  P. E. Maslen,  N. Nair,  D. P. O'Neill,  
 D. Neuhauser,  E. Neuscamman,  C. M. Oana,  R. Olivares-Amaya,  R. Olson,  
 T. M. Perrine,  B. Peters,  P. A. Pieniazek,  A. Prociuk,  Y. M. Rhee,  
 J. Ritchie,  M. A. Rohrdanz,  E. Rosta,  N. J. Russ,  H. F. Schaefer III,  
 M. W. Schmidt,  N. E. Schultz,  S. Sharma,  N. Shenvi,  C. D. Sherrill,  
 A. C. Simmonett,  A. Sodt,  T. Stein,  D. Stuck,  K. S. Thanthiriwatte,  
 V. Vanovschi,  L. Vogt,  Tao Wang,  A. Warshel,  M. A. Watson,  
 C. F. Williams,  Q. Wu,  X. Xu,  Jun Yang,  W. Zhang,  Yan Zhao

   Please cite Q-Chem as follows:
  "Software for the frontiers of quantum chemistry:
   An overview of developments in the Q-Chem 5 package"
   J. Chem. Phys. 155, 084801 (2021)
   https://doi.org/10.1063/5.0055522 (open access)

 Q-Chem 6.0.2 for Intel X86 EM64T Linux

 Parts of Q-Chem use Armadillo 9.900.5 (Nocturnal Misbehaviour).
 http://arma.sourceforge.net/

 Q-Chem begins on Fri Dec 15 12:36:39 2023  

 Host: 
0

     Scratch files written to /data/scratch/C_FePB_ctL_3sextet_b3lypD3bj_ccpVDZ_pcmH2O_opt20231215123638//
 Dec722 |scratch|qcdevops|jenkins|workspace|build_RNUM 8907   
 Processing $rem in /opt/qchem/6.0.1/config/preferences:
 Processing $rem in /home/sgardner/.qchemrc:
 Symmetry turned off for PCM/SM12/SMD calculation

 Checking the input file for inconsistencies... 	...done.

--------------------------------------------------------------
User input:
--------------------------------------------------------------
$molecule
-3 6
C    2.6146177   -2.0842359   -0.9736689
C    3.4701671   -3.0685982   -0.5740893
C    4.7915540   -2.9736734   -0.8604412
C    5.3292574   -1.8625520   -1.5081104
C    4.4430590   -0.8915220   -2.1014527
C    3.0371605   -1.0260038   -1.7775457
H    3.1414215   -3.8727122    0.0533496
O    2.0309866   -0.1607443   -2.0789938
C    6.7885451   -1.7464762   -1.1571419
O    7.6691076   -1.3831193   -1.9252758
N    7.0170524   -1.9494188    0.1991783
H    6.1964061   -2.0816951    0.8108426
C    8.2025691   -1.8512397    1.0135002
H    8.2223490   -2.7412653    1.6944772
H    9.1355372   -1.8330792    0.4248752
C    8.0313532   -0.5882278    1.8735141
H    8.8543555   -0.4806294    2.6136661
H    7.1048748   -0.6908706    2.4850469
C    7.9509778    0.6528017    0.9456480
H    7.9462570    0.3757028   -0.1250113
H    8.8931798    1.2241388    1.0605179
N    6.7917231    1.5236844    1.2008081
H    6.7818916    1.8065604    2.2063487
C    4.3642895    1.9608810    0.9933153
H    3.3752150    1.4764754    0.9199303
H    4.4599219    2.3430491    2.0305479
C    5.4921576    0.9288186    0.8180307
H    5.2625717    0.0639155    1.4779186
H    5.5095267    0.5767321   -0.2279358
C    4.4360178    3.1483279    0.0036697
H    3.9322461    4.0197560    0.4613501
H    5.5005910    3.4206973   -0.1503005
C    3.7517570    2.8938531   -1.3582947
H    4.1609857    1.9618036   -1.7923536
H    3.9682481    3.7177558   -2.0680330
N    2.3093895    2.7696884   -1.2237608
H    1.8902242    1.8833301   -1.4417586
C    1.4583656    3.7580727   -0.8539561
O    1.8756101    4.8909372   -0.6634309
C   -0.0246166    3.4772934   -0.6445291
H   -0.5973204    3.8263237   -1.5308207
H   -0.3219716    4.1489890    0.1911783
C   -1.8696020    2.0425511    0.3781396
H   -2.0954576    1.0413054    0.7934501
H   -1.9776408    2.7438378    1.2381144
C   -2.8881964    2.3612604   -0.6960757
O   -3.0025491    3.5033617   -1.1157481
N   -3.6273733    1.3528275   -1.2235248
C   -4.5516564    1.4891470   -2.3271601
H   -3.5149287    0.4152361   -0.8418940
C   -5.9530350    1.0890918   -1.8654720
H   -4.2198349    0.8032962   -3.1388601
H   -4.5619086    2.5203923   -2.7379998
C   -6.4658555    2.0723096   -0.8020019
H   -6.6387200    1.0941245   -2.7392317
H   -5.9065367    0.0579892   -1.4617989
C   -7.8632875    1.7215602   -0.2552047
H   -6.5205850    3.0784299   -1.2718711
H   -5.7494279    2.1468953    0.0416050
H   -8.1871145    2.5396587    0.4224259
H   -8.5824339    1.6903964   -1.1021973
C   -5.6477403   -2.4065275   -0.0324446
C   -4.0498417   -2.4058268   -1.9888431
O   -6.5801668   -2.5326202   -0.8159997
C   -4.2579246   -2.2476034   -0.5966083
C   -2.7922879   -2.1688710   -2.5764325
C   -3.1582272   -1.8318243    0.1930234
C   -1.7293842   -1.7206620   -1.7897541
C   -1.9282026   -1.5386057   -0.4224616
H   -3.2519430   -1.6482424    1.2531847
O   -0.5000372   -1.4057157   -2.2880333
C   -0.4294717    2.0175840   -0.2169392
O   -0.4300144    1.1519463   -1.3506786
C    0.5658108    1.4927284    0.8131455
O    1.2528697    0.3589873    0.5255878
O    0.7713725    2.0944397    1.8563797
H    4.8191472   -0.0121500   -2.6269563
O    1.3522290   -2.0982258   -0.5331790
H   -2.6668305   -2.2890884   -3.6424543
O   -0.9053043   -0.9995101    0.2494199
Fe    0.4820630   -0.5136605   -0.9361086
N   -7.9357337    0.4432481    0.4762065
H   -7.7572419   -0.3469972   -0.1803172
N   -5.9062335   -2.3152746    1.3082823
H   -5.1371092   -2.2544253    1.9851409
C   -7.2488684   -2.1857435    1.8579002
H   -8.0368688   -2.2581565    1.0779281
H   -7.4423978   -2.9976463    2.5931793
C   -7.3667481   -0.8173304    2.5563508
H   -8.3910505   -0.6910162    2.9684325
H   -6.6526573   -0.7965045    3.4100880
C   -7.0272261    0.3726768    1.6329269
H   -7.1071310    1.3035694    2.2361165
H   -5.9736634    0.2762238    1.2887069
H   -4.8717644   -2.6937328   -2.6322710
H    5.4431102   -3.7314118   -0.4436871
$end

$rem
BASIS  =  gen
DFT_D  =  D3_BJ
GUI  =  2
JOB_TYPE  =  Optimization
METHOD  =  B3LYP
SCF_CONVERGENCE  =  8
SOLVENT_METHOD  =  PCM
$end

$pcm
THEORY  CPCM
$end

$solvent
DIELECTRIC  78.39
$end

$van_der_waals
26   2.44
$end

!----------------------------------------------------------------------
! Basis Set Exchange
! Basis set: cc-pVDZ
!----------------------------------------------------------------------

$rem
BASIS GEN
PURECART 11
$end

$basis
H     0
S   4   1.00
1.301000D+01           1.968500D-02
1.962000D+00           1.379770D-01
4.446000D-01           4.781480D-01
1.220000D-01           5.012400D-01
S   1   1.00
1.220000D-01           1.000000D+00
P   1   1.00
7.270000D-01           1.0000000
****
C     0
S   9   1.00
6.665000D+03           6.920000D-04
1.000000D+03           5.329000D-03
2.280000D+02           2.707700D-02
6.471000D+01           1.017180D-01
2.106000D+01           2.747400D-01
7.495000D+00           4.485640D-01
2.797000D+00           2.850740D-01
5.215000D-01           1.520400D-02
1.596000D-01          -3.191000D-03
S   9   1.00
6.665000D+03          -1.460000D-04
1.000000D+03          -1.154000D-03
2.280000D+02          -5.725000D-03
6.471000D+01          -2.331200D-02
2.106000D+01          -6.395500D-02
7.495000D+00          -1.499810D-01
2.797000D+00          -1.272620D-01
5.215000D-01           5.445290D-01
1.596000D-01           5.804960D-01
S   1   1.00
1.596000D-01           1.000000D+00
P   4   1.00
9.439000D+00           3.810900D-02
2.002000D+00           2.094800D-01
5.456000D-01           5.085570D-01
1.517000D-01           4.688420D-01
P   1   1.00
1.517000D-01           1.000000D+00
D   1   1.00
5.500000D-01           1.0000000
****
N     0
S   9   1.00
9.046000D+03           7.000000D-04
1.357000D+03           5.389000D-03
3.093000D+02           2.740600D-02
8.773000D+01           1.032070D-01
2.856000D+01           2.787230D-01
1.021000D+01           4.485400D-01
3.838000D+00           2.782380D-01
7.466000D-01           1.544000D-02
2.248000D-01          -2.864000D-03
S   9   1.00
9.046000D+03          -1.530000D-04
1.357000D+03          -1.208000D-03
3.093000D+02          -5.992000D-03
8.773000D+01          -2.454400D-02
2.856000D+01          -6.745900D-02
1.021000D+01          -1.580780D-01
3.838000D+00          -1.218310D-01
7.466000D-01           5.490030D-01
2.248000D-01           5.788150D-01
S   1   1.00
2.248000D-01           1.000000D+00
P   4   1.00
1.355000D+01           3.991900D-02
2.917000D+00           2.171690D-01
7.973000D-01           5.103190D-01
2.185000D-01           4.622140D-01
P   1   1.00
2.185000D-01           1.000000D+00
D   1   1.00
8.170000D-01           1.0000000
****
O     0
S   9   1.00
1.172000D+04           7.100000D-04
1.759000D+03           5.470000D-03
4.008000D+02           2.783700D-02
1.137000D+02           1.048000D-01
3.703000D+01           2.830620D-01
1.327000D+01           4.487190D-01
5.025000D+00           2.709520D-01
1.013000D+00           1.545800D-02
3.023000D-01          -2.585000D-03
S   9   1.00
1.172000D+04          -1.600000D-04
1.759000D+03          -1.263000D-03
4.008000D+02          -6.267000D-03
1.137000D+02          -2.571600D-02
3.703000D+01          -7.092400D-02
1.327000D+01          -1.654110D-01
5.025000D+00          -1.169550D-01
1.013000D+00           5.573680D-01
3.023000D-01           5.727590D-01
S   1   1.00
3.023000D-01           1.000000D+00
P   4   1.00
1.770000D+01           4.301800D-02
3.854000D+00           2.289130D-01
1.046000D+00           5.087280D-01
2.753000D-01           4.605310D-01
P   1   1.00
2.753000D-01           1.000000D+00
D   1   1.00
1.185000D+00           1.0000000
****
Fe     0
S   20   1.00
4.316265D+06           8.048803D-06
6.463424D+05           6.258306D-05
1.470897D+05           3.290239D-04
4.166152D+04           1.387355D-03
1.359077D+04           5.023256D-03
4.905750D+03           1.610140D-02
1.912746D+03           4.590034D-02
7.926043D+02           1.136154D-01
3.448065D+02           2.283869D-01
1.558999D+02           3.221159D-01
7.223091D+01           2.383661D-01
3.272506D+01           7.404667D-02
1.566762D+01           9.214197D-02
7.503483D+00           9.339790D-02
3.312223D+00           1.573965D-02
1.558471D+00          -4.186682D-04
6.839140D-01           5.376318D-05
1.467570D-01          -3.816654D-05
7.058300D-02           4.319603D-05
3.144900D-02          -3.401019D-06
S   20   1.00
4.316265D+06          -4.155954D-06
6.463424D+05          -3.231401D-05
1.470897D+05          -1.699525D-04
4.166152D+04          -7.171369D-04
1.359077D+04          -2.603625D-03
4.905750D+03          -8.399109D-03
1.912746D+03          -2.434109D-02
7.926043D+02          -6.251948D-02
3.448065D+02          -1.365929D-01
1.558999D+02          -2.312707D-01
7.223091D+01          -2.383734D-01
3.272506D+01           3.123837D-02
1.566762D+01           5.086818D-01
7.503483D+00           4.987695D-01
3.312223D+00           9.033552D-02
1.558471D+00          -6.005337D-03
6.839140D-01           2.312454D-04
1.467570D-01          -5.643680D-04
7.058300D-02           4.992260D-04
3.144900D-02          -1.015293D-04
S   20   1.00
4.316265D+06           9.532178D-07
6.463424D+05           7.414605D-06
1.470897D+05           3.898393D-05
4.166152D+04           1.647152D-04
1.359077D+04           5.985980D-04
4.905750D+03           1.942390D-03
1.912746D+03           5.687237D-03
7.926043D+02           1.501329D-02
3.448065D+02           3.452455D-02
1.558999D+02           6.495820D-02
7.223091D+01           7.716194D-02
3.272506D+01          -1.873411D-02
1.566762D+01          -3.009185D-01
7.503483D+00          -4.554661D-01
3.312223D+00           1.286463D-01
1.558471D+00           7.183316D-01
6.839140D-01           4.051743D-01
1.467570D-01           2.168227D-02
7.058300D-02          -8.343566D-03
3.144900D-02           3.658979D-03
S   20   1.00
4.316265D+06          -2.063008D-07
6.463424D+05          -1.604169D-06
1.470897D+05          -8.438437D-06
4.166152D+04          -3.563151D-05
1.359077D+04          -1.295998D-04
4.905750D+03          -4.201534D-04
1.912746D+03          -1.231954D-03
7.926043D+02          -3.248922D-03
3.448065D+02          -7.493717D-03
1.558999D+02          -1.410102D-02
7.223091D+01          -1.691600D-02
3.272506D+01           4.218996D-03
1.566762D+01           6.833810D-02
7.503483D+00           1.098201D-01
3.312223D+00          -4.009005D-02
1.558471D+00          -2.174739D-01
6.839140D-01          -2.465135D-01
1.467570D-01           2.731435D-01
7.058300D-02           5.748321D-01
3.144900D-02           3.012713D-01
S   20   1.00
4.316265D+06          -4.009367D-07
6.463424D+05          -3.189255D-06
1.470897D+05          -1.623079D-05
4.166152D+04          -7.157920D-05
1.359077D+04          -2.463958D-04
4.905750D+03          -8.544907D-04
1.912746D+03          -2.307593D-03
7.926043D+02          -6.728292D-03
3.448065D+02          -1.366165D-02
1.558999D+02          -3.062240D-02
7.223091D+01          -2.631137D-02
3.272506D+01          -9.760183D-03
1.566762D+01           1.801906D-01
7.503483D+00           1.529634D-01
3.312223D+00           5.505413D-02
1.558471D+00          -9.551364D-01
6.839140D-01           2.586813D-01
1.467570D-01           1.834049D+00
7.058300D-02          -9.333240D-01
3.144900D-02          -6.981605D-01
S   1   1.00
3.144900D-02           1.000000D+00
P   16   1.00
1.774569D+04           4.100000D-05
4.200721D+03           3.690000D-04
1.364429D+03           2.129000D-03
5.220806D+02           9.369000D-03
2.214595D+02           3.309700D-02
1.009096D+02           9.443100D-02
4.840115D+01           2.080770D-01
2.398536D+01           3.323330D-01
1.218250D+01           3.329870D-01
6.242298D+00           1.568430D-01
3.110944D+00           2.154900D-02
1.509958D+00          -2.095000D-03
7.108450D-01          -1.739000D-03
2.731900D-01          -3.000000D-04
1.042330D-01           2.900000D-05
3.829100D-02          -1.100000D-05
P   16   1.00
1.774569D+04          -1.500000D-05
4.200721D+03          -1.300000D-04
1.364429D+03          -7.510000D-04
5.220806D+02          -3.329000D-03
2.214595D+02          -1.191200D-02
1.009096D+02          -3.493300D-02
4.840115D+01          -7.998900D-02
2.398536D+01          -1.346360D-01
1.218250D+01          -1.385980D-01
6.242298D+00           3.027800D-02
3.110944D+00           3.332160D-01
1.509958D+00           4.561530D-01
7.108450D-01           2.850510D-01
2.731900D-01           4.614400D-02
1.042330D-01          -3.249000D-03
3.829100D-02           1.357000D-03
P   16   1.00
1.774569D+04           5.000000D-06
4.200721D+03           4.200000D-05
1.364429D+03           2.410000D-04
5.220806D+02           1.085000D-03
2.214595D+02           3.831000D-03
1.009096D+02           1.142300D-02
4.840115D+01           2.579200D-02
2.398536D+01           4.481800D-02
1.218250D+01           4.459800D-02
6.242298D+00          -1.117700D-02
3.110944D+00          -1.381340D-01
1.509958D+00          -1.882850D-01
7.108450D-01          -1.073990D-01
2.731900D-01           4.448630D-01
1.042330D-01           6.402390D-01
3.829100D-02           6.445700D-02
P   16   1.00
1.774569D+04           3.000000D-06
4.200721D+03           2.900000D-05
1.364429D+03           1.650000D-04
5.220806D+02           7.340000D-04
2.214595D+02           2.626000D-03
1.009096D+02           7.725000D-03
4.840115D+01           1.773300D-02
2.398536D+01           3.005500D-02
1.218250D+01           3.109400D-02
6.242298D+00          -1.004800D-02
3.110944D+00          -8.830600D-02
1.509958D+00          -1.298240D-01
7.108450D-01          -7.693700D-02
2.731900D-01           2.126610D-01
1.042330D-01           5.730610D-01
3.829100D-02           3.696510D-01
P   1   1.00
3.829100D-02           1.000000D+00
D   8   1.00
1.133440D+02           3.530000D-03
3.364140D+01           2.578400D-02
1.233100D+01           9.911900D-02
4.994780D+00           2.390730D-01
2.072800D+00           3.571990D-01
8.307530D-01           3.621880D-01
3.091780D-01           2.364610D-01
1.001300D-01           6.011800D-02
D   8   1.00
1.133440D+02          -3.890000D-03
3.364140D+01          -2.844200D-02
1.233100D+01          -1.124290D-01
4.994780D+00          -2.742570D-01
2.072800D+00          -3.155460D-01
8.307530D-01           5.710900D-02
3.091780D-01           5.636040D-01
1.001300D-01           3.846370D-01
D   1   1.00
1.001300D-01           1.000000D+00
F   2   1.00
3.224300D+00           4.222490D-01
7.758000D-01           7.714680D-01
****
$end



--------------------------------------------------------------
 Adding empirical dispersion correction 
 ----------------------------------------------------------------
 Doing -D3(BJ) with
 s6  =   1.00000
 s8  =   1.98890
 a1  =   0.39810
 a2  =   4.42110
 -D3 energy without 3body term =     -0.2426742537 hartrees
 ----------------------------------------------------------------
             Standard Nuclear Orientation (Angstroms)
    I     Atom           X                Y                Z
 ----------------------------------------------------------------
    1      C       2.6146177000    -2.0842359000    -0.9736689000
    2      C       3.4701671000    -3.0685982000    -0.5740893000
    3      C       4.7915540000    -2.9736734000    -0.8604412000
    4      C       5.3292574000    -1.8625520000    -1.5081104000
    5      C       4.4430590000    -0.8915220000    -2.1014527000
    6      C       3.0371605000    -1.0260038000    -1.7775457000
    7      H       3.1414215000    -3.8727122000     0.0533496000
    8      O       2.0309866000    -0.1607443000    -2.0789938000
    9      C       6.7885451000    -1.7464762000    -1.1571419000
   10      O       7.6691076000    -1.3831193000    -1.9252758000
   11      N       7.0170524000    -1.9494188000     0.1991783000
   12      H       6.1964061000    -2.0816951000     0.8108426000
   13      C       8.2025691000    -1.8512397000     1.0135002000
   14      H       8.2223490000    -2.7412653000     1.6944772000
   15      H       9.1355372000    -1.8330792000     0.4248752000
   16      C       8.0313532000    -0.5882278000     1.8735141000
   17      H       8.8543555000    -0.4806294000     2.6136661000
   18      H       7.1048748000    -0.6908706000     2.4850469000
   19      C       7.9509778000     0.6528017000     0.9456480000
   20      H       7.9462570000     0.3757028000    -0.1250113000
   21      H       8.8931798000     1.2241388000     1.0605179000
   22      N       6.7917231000     1.5236844000     1.2008081000
   23      H       6.7818916000     1.8065604000     2.2063487000
   24      C       4.3642895000     1.9608810000     0.9933153000
   25      H       3.3752150000     1.4764754000     0.9199303000
   26      H       4.4599219000     2.3430491000     2.0305479000
   27      C       5.4921576000     0.9288186000     0.8180307000
   28      H       5.2625717000     0.0639155000     1.4779186000
   29      H       5.5095267000     0.5767321000    -0.2279358000
   30      C       4.4360178000     3.1483279000     0.0036697000
   31      H       3.9322461000     4.0197560000     0.4613501000
   32      H       5.5005910000     3.4206973000    -0.1503005000
   33      C       3.7517570000     2.8938531000    -1.3582947000
   34      H       4.1609857000     1.9618036000    -1.7923536000
   35      H       3.9682481000     3.7177558000    -2.0680330000
   36      N       2.3093895000     2.7696884000    -1.2237608000
   37      H       1.8902242000     1.8833301000    -1.4417586000
   38      C       1.4583656000     3.7580727000    -0.8539561000
   39      O       1.8756101000     4.8909372000    -0.6634309000
   40      C      -0.0246166000     3.4772934000    -0.6445291000
   41      H      -0.5973204000     3.8263237000    -1.5308207000
   42      H      -0.3219716000     4.1489890000     0.1911783000
   43      C      -1.8696020000     2.0425511000     0.3781396000
   44      H      -2.0954576000     1.0413054000     0.7934501000
   45      H      -1.9776408000     2.7438378000     1.2381144000
   46      C      -2.8881964000     2.3612604000    -0.6960757000
   47      O      -3.0025491000     3.5033617000    -1.1157481000
   48      N      -3.6273733000     1.3528275000    -1.2235248000
   49      C      -4.5516564000     1.4891470000    -2.3271601000
   50      H      -3.5149287000     0.4152361000    -0.8418940000
   51      C      -5.9530350000     1.0890918000    -1.8654720000
   52      H      -4.2198349000     0.8032962000    -3.1388601000
   53      H      -4.5619086000     2.5203923000    -2.7379998000
   54      C      -6.4658555000     2.0723096000    -0.8020019000
   55      H      -6.6387200000     1.0941245000    -2.7392317000
   56      H      -5.9065367000     0.0579892000    -1.4617989000
   57      C      -7.8632875000     1.7215602000    -0.2552047000
   58      H      -6.5205850000     3.0784299000    -1.2718711000
   59      H      -5.7494279000     2.1468953000     0.0416050000
   60      H      -8.1871145000     2.5396587000     0.4224259000
   61      H      -8.5824339000     1.6903964000    -1.1021973000
   62      C      -5.6477403000    -2.4065275000    -0.0324446000
   63      C      -4.0498417000    -2.4058268000    -1.9888431000
   64      O      -6.5801668000    -2.5326202000    -0.8159997000
   65      C      -4.2579246000    -2.2476034000    -0.5966083000
   66      C      -2.7922879000    -2.1688710000    -2.5764325000
   67      C      -3.1582272000    -1.8318243000     0.1930234000
   68      C      -1.7293842000    -1.7206620000    -1.7897541000
   69      C      -1.9282026000    -1.5386057000    -0.4224616000
   70      H      -3.2519430000    -1.6482424000     1.2531847000
   71      O      -0.5000372000    -1.4057157000    -2.2880333000
   72      C      -0.4294717000     2.0175840000    -0.2169392000
   73      O      -0.4300144000     1.1519463000    -1.3506786000
   74      C       0.5658108000     1.4927284000     0.8131455000
   75      O       1.2528697000     0.3589873000     0.5255878000
   76      O       0.7713725000     2.0944397000     1.8563797000
   77      H       4.8191472000    -0.0121500000    -2.6269563000
   78      O       1.3522290000    -2.0982258000    -0.5331790000
   79      H      -2.6668305000    -2.2890884000    -3.6424543000
   80      O      -0.9053043000    -0.9995101000     0.2494199000
   81      Fe      0.4820630000    -0.5136605000    -0.9361086000
   82      N      -7.9357337000     0.4432481000     0.4762065000
   83      H      -7.7572419000    -0.3469972000    -0.1803172000
   84      N      -5.9062335000    -2.3152746000     1.3082823000
   85      H      -5.1371092000    -2.2544253000     1.9851409000
   86      C      -7.2488684000    -2.1857435000     1.8579002000
   87      H      -8.0368688000    -2.2581565000     1.0779281000
   88      H      -7.4423978000    -2.9976463000     2.5931793000
   89      C      -7.3667481000    -0.8173304000     2.5563508000
   90      H      -8.3910505000    -0.6910162000     2.9684325000
   91      H      -6.6526573000    -0.7965045000     3.4100880000
   92      C      -7.0272261000     0.3726768000     1.6329269000
   93      H      -7.1071310000     1.3035694000     2.2361165000
   94      H      -5.9736634000     0.2762238000     1.2887069000
   95      H      -4.8717644000    -2.6937328000    -2.6322710000
   96      H       5.4431102000    -3.7314118000    -0.4436871000
 ----------------------------------------------------------------
 Nuclear Repulsion Energy =        8490.08243444 hartrees
 There are      206 alpha and      201 beta electrons
 Requested basis set is non-standard
 There are 453 shells and 977 basis functions

 Total QAlloc Memory Limit   8000 MB
 Mega-Array Size       188 MB
 MEM_STATIC part       192 MB

 -----------------------------------------------------------------------
                STARTING GEOMETRY OPTIMIZER USING LIBOPT3
                by Peter F. McLaughlin, Yu Zhang, Evgeny Epifanovsky
 -----------------------------------------------------------------------

              Initial Energy and Gradient Calculation
   -- Checking Topology for Ill-Behaving Coordinates --

 -------------------------------------------
   Coordinate       |  Removed | Additions 
 -------------------------------------------
	Bonds                     0          0
	Angles                    3          0
	Torsions                  6          6
	Co-Linear Type5s          0          6
	Co-Linear Type6s          0          6
 -------------------------------------------

 ** Ill-Behaving Topology Definitions (No action needed.) **

  Ill-Defined Angles Removed: 
   8  81  80,  71  81  75,  73  81  78

  Ill-Defined Torsions Removed: 
   1  78  81  73,   6   8  81  80,  68  71  81  75,  69  80  81   8,  72  73  81  78
  74  75  81  71

     Done Checking Topology
 Adding empirical dispersion correction 
 ----------------------------------------------------------------
 Doing -D3(BJ) with
 s6  =   1.00000
 s8  =   1.98890
 a1  =   0.39810
 a2  =   4.42110
 -D3 energy without 3body term =     -0.2426742537 hartrees
 ----------------------------------------------------------------
             Standard Nuclear Orientation (Angstroms)
    I     Atom           X                Y                Z
 ----------------------------------------------------------------
    1      C       2.6146177000    -2.0842359000    -0.9736689000
    2      C       3.4701671000    -3.0685982000    -0.5740893000
    3      C       4.7915540000    -2.9736734000    -0.8604412000
    4      C       5.3292574000    -1.8625520000    -1.5081104000
    5      C       4.4430590000    -0.8915220000    -2.1014527000
    6      C       3.0371605000    -1.0260038000    -1.7775457000
    7      H       3.1414215000    -3.8727122000     0.0533496000
    8      O       2.0309866000    -0.1607443000    -2.0789938000
    9      C       6.7885451000    -1.7464762000    -1.1571419000
   10      O       7.6691076000    -1.3831193000    -1.9252758000
   11      N       7.0170524000    -1.9494188000     0.1991783000
   12      H       6.1964061000    -2.0816951000     0.8108426000
   13      C       8.2025691000    -1.8512397000     1.0135002000
   14      H       8.2223490000    -2.7412653000     1.6944772000
   15      H       9.1355372000    -1.8330792000     0.4248752000
   16      C       8.0313532000    -0.5882278000     1.8735141000
   17      H       8.8543555000    -0.4806294000     2.6136661000
   18      H       7.1048748000    -0.6908706000     2.4850469000
   19      C       7.9509778000     0.6528017000     0.9456480000
   20      H       7.9462570000     0.3757028000    -0.1250113000
   21      H       8.8931798000     1.2241388000     1.0605179000
   22      N       6.7917231000     1.5236844000     1.2008081000
   23      H       6.7818916000     1.8065604000     2.2063487000
   24      C       4.3642895000     1.9608810000     0.9933153000
   25      H       3.3752150000     1.4764754000     0.9199303000
   26      H       4.4599219000     2.3430491000     2.0305479000
   27      C       5.4921576000     0.9288186000     0.8180307000
   28      H       5.2625717000     0.0639155000     1.4779186000
   29      H       5.5095267000     0.5767321000    -0.2279358000
   30      C       4.4360178000     3.1483279000     0.0036697000
   31      H       3.9322461000     4.0197560000     0.4613501000
   32      H       5.5005910000     3.4206973000    -0.1503005000
   33      C       3.7517570000     2.8938531000    -1.3582947000
   34      H       4.1609857000     1.9618036000    -1.7923536000
   35      H       3.9682481000     3.7177558000    -2.0680330000
   36      N       2.3093895000     2.7696884000    -1.2237608000
   37      H       1.8902242000     1.8833301000    -1.4417586000
   38      C       1.4583656000     3.7580727000    -0.8539561000
   39      O       1.8756101000     4.8909372000    -0.6634309000
   40      C      -0.0246166000     3.4772934000    -0.6445291000
   41      H      -0.5973204000     3.8263237000    -1.5308207000
   42      H      -0.3219716000     4.1489890000     0.1911783000
   43      C      -1.8696020000     2.0425511000     0.3781396000
   44      H      -2.0954576000     1.0413054000     0.7934501000
   45      H      -1.9776408000     2.7438378000     1.2381144000
   46      C      -2.8881964000     2.3612604000    -0.6960757000
   47      O      -3.0025491000     3.5033617000    -1.1157481000
   48      N      -3.6273733000     1.3528275000    -1.2235248000
   49      C      -4.5516564000     1.4891470000    -2.3271601000
   50      H      -3.5149287000     0.4152361000    -0.8418940000
   51      C      -5.9530350000     1.0890918000    -1.8654720000
   52      H      -4.2198349000     0.8032962000    -3.1388601000
   53      H      -4.5619086000     2.5203923000    -2.7379998000
   54      C      -6.4658555000     2.0723096000    -0.8020019000
   55      H      -6.6387200000     1.0941245000    -2.7392317000
   56      H      -5.9065367000     0.0579892000    -1.4617989000
   57      C      -7.8632875000     1.7215602000    -0.2552047000
   58      H      -6.5205850000     3.0784299000    -1.2718711000
   59      H      -5.7494279000     2.1468953000     0.0416050000
   60      H      -8.1871145000     2.5396587000     0.4224259000
   61      H      -8.5824339000     1.6903964000    -1.1021973000
   62      C      -5.6477403000    -2.4065275000    -0.0324446000
   63      C      -4.0498417000    -2.4058268000    -1.9888431000
   64      O      -6.5801668000    -2.5326202000    -0.8159997000
   65      C      -4.2579246000    -2.2476034000    -0.5966083000
   66      C      -2.7922879000    -2.1688710000    -2.5764325000
   67      C      -3.1582272000    -1.8318243000     0.1930234000
   68      C      -1.7293842000    -1.7206620000    -1.7897541000
   69      C      -1.9282026000    -1.5386057000    -0.4224616000
   70      H      -3.2519430000    -1.6482424000     1.2531847000
   71      O      -0.5000372000    -1.4057157000    -2.2880333000
   72      C      -0.4294717000     2.0175840000    -0.2169392000
   73      O      -0.4300144000     1.1519463000    -1.3506786000
   74      C       0.5658108000     1.4927284000     0.8131455000
   75      O       1.2528697000     0.3589873000     0.5255878000
   76      O       0.7713725000     2.0944397000     1.8563797000
   77      H       4.8191472000    -0.0121500000    -2.6269563000
   78      O       1.3522290000    -2.0982258000    -0.5331790000
   79      H      -2.6668305000    -2.2890884000    -3.6424543000
   80      O      -0.9053043000    -0.9995101000     0.2494199000
   81      Fe      0.4820630000    -0.5136605000    -0.9361086000
   82      N      -7.9357337000     0.4432481000     0.4762065000
   83      H      -7.7572419000    -0.3469972000    -0.1803172000
   84      N      -5.9062335000    -2.3152746000     1.3082823000
   85      H      -5.1371092000    -2.2544253000     1.9851409000
   86      C      -7.2488684000    -2.1857435000     1.8579002000
   87      H      -8.0368688000    -2.2581565000     1.0779281000
   88      H      -7.4423978000    -2.9976463000     2.5931793000
   89      C      -7.3667481000    -0.8173304000     2.5563508000
   90      H      -8.3910505000    -0.6910162000     2.9684325000
   91      H      -6.6526573000    -0.7965045000     3.4100880000
   92      C      -7.0272261000     0.3726768000     1.6329269000
   93      H      -7.1071310000     1.3035694000     2.2361165000
   94      H      -5.9736634000     0.2762238000     1.2887069000
   95      H      -4.8717644000    -2.6937328000    -2.6322710000
   96      H       5.4431102000    -3.7314118000    -0.4436871000
 ----------------------------------------------------------------
 Nuclear Repulsion Energy =        8490.08243444 hartrees
 There are      206 alpha and      201 beta electrons
 Using C-PCM dielectric factor f(eps) = (eps-1)/eps = 0.987243
No default van der Waals radius is available for Z = 26
	Found R = 2.4400 A in the $van_der_waals section
 Discretize the solute cavity surface with Lebedev spheres
	Using 110 Lebedev grid points for each H atom
	Using 194 Lebedev grid points for other atoms
	Atomic van der Waals radii (Bondi set) will be scaled by 1.20
 Using smooth SwiG surface discretization
 Remove points where switching function is < 1.0e-08
 Keep 5523 surface tesserae and discard 9405 interior tesserae
 Molecular Surface Area = 667.922 Angst**2

 Requested basis set is non-standard
 There are 453 shells and 977 basis functions
 A cutoff of  1.0D-12 yielded  64670 shell pairs
 There are    279482 function pairs (    309216 Cartesian)
 Smallest overlap matrix eigenvalue = 1.55E-04

 Scale SEOQF with 1.000000e-02/1.000000e-01/1.000000e-01

 Standard Electronic Orientation quadrupole field applied
 Nucleus-field energy     =     0.0000000745 hartrees
 ================ Generating on-the-fly SAD Guess ================
 Attempting to make child job directory: /data/scratch/C_FePB_ctL_3sextet_b3lypD3bj_ccpVDZ_pcmH2O_opt20231215123638//Frg1/
 Attempting to make child job directory: /data/scratch/C_FePB_ctL_3sextet_b3lypD3bj_ccpVDZ_pcmH2O_opt20231215123638//Frg2/
 Attempting to make child job directory: /data/scratch/C_FePB_ctL_3sextet_b3lypD3bj_ccpVDZ_pcmH2O_opt20231215123638//Frg3/
 Attempting to make child job directory: /data/scratch/C_FePB_ctL_3sextet_b3lypD3bj_ccpVDZ_pcmH2O_opt20231215123638//Frg4/
 Attempting to make child job directory: /data/scratch/C_FePB_ctL_3sextet_b3lypD3bj_ccpVDZ_pcmH2O_opt20231215123638//Frg5/
 Creating input file /data/scratch/C_FePB_ctL_3sextet_b3lypD3bj_ccpVDZ_pcmH2O_opt20231215123638/Frg1.input
 using default PutDataFrgm: nothing
 calling putenv with: QCSCRATCH=/data/scratch/C_FePB_ctL_3sextet_b3lypD3bj_ccpVDZ_pcmH2O_opt20231215123638/ 
 Spawning Job For Fragment 0
 Done Job For Fragment 0
 calling putenv with: QCSCRATCH=/data/scratch 
 calling putenv with: QCTHREADS=20 
 Creating input file /data/scratch/C_FePB_ctL_3sextet_b3lypD3bj_ccpVDZ_pcmH2O_opt20231215123638/Frg2.input
 using default PutDataFrgm: nothing
 calling putenv with: QCSCRATCH=/data/scratch/C_FePB_ctL_3sextet_b3lypD3bj_ccpVDZ_pcmH2O_opt20231215123638/ 
 Spawning Job For Fragment 1
 Done Job For Fragment 1
 calling putenv with: QCSCRATCH=/data/scratch 
 calling putenv with: QCTHREADS=20 
 Creating input file /data/scratch/C_FePB_ctL_3sextet_b3lypD3bj_ccpVDZ_pcmH2O_opt20231215123638/Frg3.input
 using default PutDataFrgm: nothing
 calling putenv with: QCSCRATCH=/data/scratch/C_FePB_ctL_3sextet_b3lypD3bj_ccpVDZ_pcmH2O_opt20231215123638/ 
 Spawning Job For Fragment 2
 Done Job For Fragment 2
 calling putenv with: QCSCRATCH=/data/scratch 
 calling putenv with: QCTHREADS=20 
 Creating input file /data/scratch/C_FePB_ctL_3sextet_b3lypD3bj_ccpVDZ_pcmH2O_opt20231215123638/Frg4.input
 using default PutDataFrgm: nothing
 calling putenv with: QCSCRATCH=/data/scratch/C_FePB_ctL_3sextet_b3lypD3bj_ccpVDZ_pcmH2O_opt20231215123638/ 
 Spawning Job For Fragment 3
 Done Job For Fragment 3
 calling putenv with: QCSCRATCH=/data/scratch 
 calling putenv with: QCTHREADS=20 
 Creating input file /data/scratch/C_FePB_ctL_3sextet_b3lypD3bj_ccpVDZ_pcmH2O_opt20231215123638/Frg5.input
 using default PutDataFrgm: nothing
 calling putenv with: QCSCRATCH=/data/scratch/C_FePB_ctL_3sextet_b3lypD3bj_ccpVDZ_pcmH2O_opt20231215123638/ 
 Spawning Job For Fragment 4
 Done Job For Fragment 4
 calling putenv with: QCSCRATCH=/data/scratch 
 calling putenv with: QCTHREADS=20 
 Time for running child jobs:  CPU 0.02 s  wall 55.14 s
 ============= Method Specific SAD Guess Constructed =============
 Guess from on-the-fly superposition of atomic densities
 Warning: Energy on first SCF cycle will be non-variational

 -----------------------------------------------------------------------
  General SCF calculation program by
  Eric Jon Sundstrom, Paul Horn, Yuezhi Mao, Dmitri Zuev, Alec White,
  David Stuck, Shaama M.S., Shane Yost, Joonho Lee, David Small,
  Daniel Levine, Susi Lehtola, Hugh Burton, Evgeny Epifanovsky,
  Bang C. Huynh
 -----------------------------------------------------------------------
 Exchange:     0.2000 Hartree-Fock + 0.0800 Slater + 0.7200 B88
 Correlation:  0.1900 VWN1RPA + 0.8100 LYP
 Using SG-1 standard quadrature grid
 Dispersion:   Grimme D3
 using 20 threads for integral computing
 -------------------------------------------------------
 OpenMP Integral computing Module                
 Release: version 1.0, May 2013, Q-Chem Inc. Pittsburgh 
 -------------------------------------------------------
 C-PCM solvent model [f = (eps-1)/eps], solve by matrix inversion
 A unrestricted SCF calculation will be
 performed using DIIS
 SCF converges when DIIS error is below 1.0e-08
 ---------------------------------------
  Cycle       Energy         DIIS error
 ---------------------------------------
    1   -3763.0051817882      1.42e-02  
    2   -3741.4050120155      1.72e-03  
    3   -3740.1530849017      2.66e-03  
    4   -3742.6174293198      7.37e-04  
    5   -3742.7941889599      2.26e-04  
    6   -3742.8030952152      1.76e-04  
    7   -3742.8136209541      5.02e-05  
    8   -3742.8146745140      2.34e-05  
    9   -3742.8149185643      1.01e-05  
   10   -3742.8149662326      4.50e-06  
   11   -3742.8149758596      1.92e-06  
   12   -3742.8149776028      7.73e-07  
   13   -3742.8149779479      3.89e-07  
   14   -3742.8149780309      1.58e-07  
   15   -3742.8149780566      8.99e-08  
   16   -3742.8149780658      5.43e-08  
   17   -3742.8149780695      2.14e-08  
   18   -3742.8149780703      1.33e-08  
   19   -3742.8149780705      7.33e-09  Convergence criterion met
 ---------------------------------------
 SCF time:   CPU 41877.77s  wall 2896.00s 
<S^2> =          8.756133182

************** Final PCM Free Energy Summary **************
 G_electrostatic  =      -0.52972712 hartree =    -332.40878290 kcal/mol
 G_cavitation     =       0.00000000 hartree =       0.00000000 kcal/mol
 G_dispersion     =       0.00000000 hartree =       0.00000000 kcal/mol
 G_repulsion      =       0.00000000 hartree =       0.00000000 kcal/mol
 --------------------------------------------------
 Non-electrostatic Free Energy =       0.00000000 hartree =       0.00000000 kcal/mol
 Total                         =      -0.52972712 hartree =    -332.40878290 kcal/mol
 --------------------------------------------------
 SCF Energy (H0 + V/2)                       =   -3742.81497807 
 Solute Internal Energy (H0)                 =   -3742.28525095 
 Total Free Energy (H0 + V/2 + non-elec)     =   -3742.81497807 hartree
                                             = -2348651.84693989 kcal/mol
***********************************************************

 SCF   energy in the final basis set =    -3742.8149780705
 Total energy in the final basis set =    -3742.8149780705
 
 --------------------------------------------------------------
 
                    Orbital Energies (a.u.)
 --------------------------------------------------------------
 
 Alpha MOs
 -- Occupied --
******** -30.0528 -25.9051 -25.9034 -25.9024 -19.0936 -19.0892 -19.0844
-19.0821 -19.0814 -19.0779 -19.0702 -19.0683 -19.0636 -19.0622 -19.0415
-14.3395 -14.3336 -14.3298 -14.3205 -14.3008 -14.2995 -10.2750 -10.2728
-10.2643 -10.2617 -10.2596 -10.2145 -10.2123 -10.2122 -10.2053 -10.2044
-10.2022 -10.1986 -10.1971 -10.1970 -10.1956 -10.1929 -10.1895 -10.1877
-10.1779 -10.1735 -10.1725 -10.1714 -10.1710 -10.1698 -10.1677 -10.1670
-10.1663 -10.1649 -10.1642 -10.1616 -10.1590 -10.1568 -10.1513 -10.1419
 -3.5454  -2.3225  -2.3203  -2.3179  -1.0255  -1.0241  -1.0211  -1.0204
 -1.0176  -0.9799  -0.9705  -0.9317  -0.9293  -0.9292  -0.9096  -0.9085
 -0.9056  -0.9024  -0.8941  -0.8828  -0.8782  -0.8195  -0.8138  -0.7766
 -0.7709  -0.7564  -0.7527  -0.7431  -0.7203  -0.7166  -0.7123  -0.7014
 -0.6944  -0.6913  -0.6802  -0.6619  -0.6495  -0.6255  -0.6178  -0.6022
 -0.5958  -0.5957  -0.5817  -0.5765  -0.5715  -0.5715  -0.5665  -0.5604
 -0.5533  -0.5500  -0.5488  -0.5326  -0.5086  -0.5045  -0.4992  -0.4845
 -0.4820  -0.4774  -0.4709  -0.4663  -0.4649  -0.4633  -0.4574  -0.4551
 -0.4547  -0.4525  -0.4496  -0.4493  -0.4440  -0.4429  -0.4383  -0.4358
 -0.4337  -0.4318  -0.4274  -0.4212  -0.4186  -0.4153  -0.4101  -0.4095
 -0.4085  -0.4056  -0.4048  -0.4008  -0.3990  -0.3971  -0.3944  -0.3906
 -0.3892  -0.3858  -0.3819  -0.3792  -0.3763  -0.3738  -0.3710  -0.3696
 -0.3652  -0.3626  -0.3612  -0.3584  -0.3563  -0.3541  -0.3523  -0.3495
 -0.3471  -0.3444  -0.3434  -0.3380  -0.3370  -0.3354  -0.3334  -0.3311
 -0.3283  -0.3270  -0.3257  -0.3218  -0.3204  -0.3166  -0.3153  -0.3113
 -0.3082  -0.3066  -0.3048  -0.2893  -0.2848  -0.2807  -0.2803  -0.2635
 -0.2590  -0.2504  -0.2486  -0.2440  -0.2421  -0.2417  -0.2381  -0.2348
 -0.2337  -0.2318  -0.2283  -0.2275  -0.2160  -0.2079  -0.2066  -0.2049
 -0.2031  -0.1951  -0.1580  -0.1559  -0.1509  -0.1395
 -- Virtual --
 -0.0068   0.0033   0.0261   0.0278   0.0337   0.0440   0.0513   0.0592
  0.0610   0.0632   0.0658   0.0732   0.0771   0.0806   0.0815   0.0830
  0.0881   0.0894   0.0942   0.0979   0.1003   0.1048   0.1086   0.1088
  0.1106   0.1141   0.1213   0.1255   0.1263   0.1291   0.1308   0.1346
  0.1372   0.1409   0.1419   0.1453   0.1494   0.1518   0.1555   0.1568
  0.1598   0.1618   0.1653   0.1664   0.1681   0.1731   0.1745   0.1770
  0.1790   0.1805   0.1861   0.1890   0.1924   0.1952   0.1964   0.2001
  0.2041   0.2067   0.2103   0.2117   0.2169   0.2202   0.2216   0.2263
  0.2278   0.2322   0.2367   0.2387   0.2444   0.2461   0.2494   0.2521
  0.2536   0.2596   0.2623   0.2638   0.2651   0.2688   0.2791   0.2830
  0.2854   0.2871   0.2879   0.2913   0.2951   0.3002   0.3031   0.3083
  0.3207   0.3272   0.3287   0.3392   0.3445   0.3480   0.3508   0.3541
  0.3635   0.3683   0.3746   0.3802   0.3868   0.3925   0.3960   0.4054
  0.4070   0.4108   0.4154   0.4173   0.4203   0.4233   0.4257   0.4284
  0.4350   0.4388   0.4427   0.4466   0.4506   0.4535   0.4557   0.4584
  0.4649   0.4662   0.4681   0.4698   0.4724   0.4760   0.4796   0.4825
  0.4853   0.4874   0.4910   0.4978   0.4993   0.5008   0.5049   0.5063
  0.5073   0.5098   0.5173   0.5209   0.5220   0.5247   0.5270   0.5328
  0.5344   0.5378   0.5412   0.5426   0.5441   0.5535   0.5550   0.5604
  0.5634   0.5681   0.5703   0.5724   0.5737   0.5776   0.5826   0.5835
  0.5843   0.5845   0.5870   0.5898   0.5914   0.5938   0.5959   0.5972
  0.6039   0.6085   0.6099   0.6129   0.6168   0.6200   0.6226   0.6257
  0.6268   0.6293   0.6334   0.6351   0.6360   0.6407   0.6412   0.6458
  0.6470   0.6502   0.6517   0.6530   0.6540   0.6552   0.6572   0.6584
  0.6615   0.6637   0.6645   0.6676   0.6689   0.6729   0.6746   0.6758
  0.6789   0.6826   0.6854   0.6868   0.6896   0.6924   0.6935   0.6963
  0.6969   0.6995   0.7024   0.7031   0.7072   0.7079   0.7097   0.7109
  0.7136   0.7156   0.7195   0.7217   0.7244   0.7257   0.7326   0.7363
  0.7375   0.7397   0.7419   0.7489   0.7511   0.7559   0.7593   0.7638
  0.7659   0.7695   0.7768   0.7789   0.7806   0.7843   0.7853   0.7909
  0.7921   0.7959   0.8098   0.8151   0.8190   0.8210   0.8255   0.8314
  0.8393   0.8404   0.8420   0.8505   0.8542   0.8576   0.8645   0.8662
  0.8690   0.8770   0.8795   0.8826   0.8875   0.8915   0.8969   0.9004
  0.9032   0.9068   0.9125   0.9167   0.9190   0.9241   0.9268   0.9333
  0.9388   0.9423   0.9458   0.9511   0.9516   0.9613   0.9630   0.9646
  0.9673   0.9709   0.9815   0.9852   0.9896   0.9925   0.9986   1.0017
  1.0085   1.0102   1.0156   1.0216   1.0263   1.0293   1.0376   1.0444
  1.0462   1.0557   1.0608   1.0645   1.0691   1.0699   1.0737   1.0784
  1.0833   1.0874   1.0918   1.0946   1.1000   1.1080   1.1119   1.1132
  1.1176   1.1201   1.1254   1.1288   1.1370   1.1408   1.1430   1.1449
  1.1522   1.1554   1.1560   1.1626   1.1660   1.1705   1.1729   1.1763
  1.1792   1.1823   1.1887   1.1963   1.1978   1.2000   1.2035   1.2066
  1.2167   1.2174   1.2200   1.2248   1.2272   1.2311   1.2354   1.2381
  1.2425   1.2497   1.2515   1.2574   1.2633   1.2647   1.2665   1.2717
  1.2804   1.2816   1.2829   1.2910   1.2940   1.2985   1.3053   1.3125
  1.3187   1.3230   1.3278   1.3353   1.3412   1.3456   1.3497   1.3580
  1.3619   1.3689   1.3727   1.3752   1.3816   1.3841   1.3852   1.3884
  1.3921   1.3983   1.4039   1.4096   1.4121   1.4182   1.4219   1.4281
  1.4297   1.4375   1.4434   1.4472   1.4476   1.4515   1.4614   1.4643
  1.4725   1.4752   1.4809   1.4840   1.4877   1.4943   1.5029   1.5038
  1.5084   1.5182   1.5207   1.5259   1.5307   1.5373   1.5406   1.5459
  1.5475   1.5504   1.5549   1.5594   1.5608   1.5629   1.5652   1.5688
  1.5761   1.5770   1.5795   1.5825   1.5866   1.5930   1.5939   1.6005
  1.6056   1.6071   1.6103   1.6145   1.6185   1.6215   1.6229   1.6239
  1.6298   1.6312   1.6395   1.6408   1.6424   1.6445   1.6495   1.6512
  1.6550   1.6553   1.6593   1.6599   1.6625   1.6668   1.6697   1.6701
  1.6735   1.6738   1.6767   1.6789   1.6820   1.6852   1.6875   1.6884
  1.6899   1.6946   1.6950   1.6994   1.7009   1.7024   1.7043   1.7093
  1.7110   1.7152   1.7160   1.7197   1.7205   1.7242   1.7278   1.7356
  1.7371   1.7382   1.7400   1.7404   1.7441   1.7443   1.7479   1.7509
  1.7536   1.7584   1.7626   1.7678   1.7709   1.7711   1.7739   1.7752
  1.7785   1.7807   1.7833   1.7861   1.7893   1.7921   1.7955   1.8013
  1.8024   1.8046   1.8069   1.8095   1.8136   1.8168   1.8204   1.8252
  1.8303   1.8336   1.8361   1.8406   1.8425   1.8450   1.8504   1.8515
  1.8551   1.8554   1.8626   1.8665   1.8698   1.8703   1.8734   1.8770
  1.8784   1.8859   1.8881   1.8940   1.8979   1.9017   1.9035   1.9075
  1.9096   1.9160   1.9223   1.9297   1.9300   1.9350   1.9395   1.9425
  1.9496   1.9501   1.9506   1.9519   1.9537   1.9563   1.9618   1.9636
  1.9749   1.9760   1.9792   1.9853   1.9902   1.9965   2.0015   2.0044
  2.0113   2.0133   2.0197   2.0224   2.0264   2.0295   2.0319   2.0402
  2.0439   2.0454   2.0585   2.0605   2.0647   2.0687   2.0702   2.0838
  2.0848   2.0871   2.0914   2.0938   2.0959   2.1004   2.1036   2.1102
  2.1129   2.1170   2.1209   2.1215   2.1270   2.1361   2.1427   2.1465
  2.1485   2.1518   2.1593   2.1655   2.1730   2.1773   2.1813   2.1898
  2.1930   2.1975   2.1992   2.2080   2.2131   2.2196   2.2281   2.2303
  2.2376   2.2392   2.2444   2.2475   2.2493   2.2502   2.2567   2.2597
  2.2663   2.2697   2.2742   2.2758   2.2826   2.2858   2.2917   2.2942
  2.3021   2.3029   2.3122   2.3136   2.3166   2.3221   2.3266   2.3353
  2.3382   2.3415   2.3516   2.3566   2.3645   2.3687   2.3730   2.3850
  2.3863   2.3918   2.4013   2.4099   2.4149   2.4197   2.4251   2.4302
  2.4371   2.4390   2.4487   2.4591   2.4615   2.4650   2.4708   2.4755
  2.4849   2.4894   2.4922   2.4999   2.5011   2.5046   2.5075   2.5164
  2.5212   2.5271   2.5333   2.5380   2.5427   2.5534   2.5707   2.5769
  2.5785   2.5800   2.5878   2.5927   2.5938   2.6055   2.6084   2.6189
  2.6275   2.6322   2.6360   2.6426   2.6535   2.6569   2.6608   2.6729
  2.6841   2.6843   2.6884   2.6982   2.7014   2.7041   2.7092   2.7117
  2.7197   2.7269   2.7341   2.7403   2.7454   2.7548   2.7553   2.7638
  2.7684   2.7741   2.7787   2.7801   2.7832   2.7860   2.7938   2.7961
  2.8016   2.8116   2.8203   2.8310   2.8333   2.8363   2.8465   2.8607
  2.8729   2.8745   2.8975   2.9139   2.9240   2.9346   2.9395   2.9666
  2.9718   2.9735   2.9878   3.0112   3.0223   3.0246   3.0460   3.0559
  3.0578   3.0740   3.0848   3.0911   3.1110   3.1126   3.1256   3.1364
  3.1381   3.1495   3.1642   3.1716   3.1769   3.1897   3.2085   3.2190
  3.2527   3.2635   3.2750   3.3443   3.3600   3.3960   3.4211   3.4273
  3.4435   3.4504   3.4744   3.4818   3.4856   3.4929   3.4990   3.5072
  3.5130   3.5159   3.5181   3.5312   3.5487   3.6387   3.7107   3.7279
  3.8082   3.8427   3.8590
 
 Beta MOs
 -- Occupied --
******** -29.9586 -25.8260 -25.8250 -25.8243 -19.0936 -19.0892 -19.0844
-19.0821 -19.0809 -19.0744 -19.0666 -19.0645 -19.0592 -19.0580 -19.0372
-14.3395 -14.3336 -14.3298 -14.3205 -14.3008 -14.2995 -10.2750 -10.2728
-10.2643 -10.2617 -10.2595 -10.2144 -10.2123 -10.2122 -10.2053 -10.2044
-10.2021 -10.1985 -10.1971 -10.1970 -10.1956 -10.1929 -10.1895 -10.1877
-10.1779 -10.1735 -10.1724 -10.1714 -10.1709 -10.1698 -10.1677 -10.1670
-10.1662 -10.1649 -10.1642 -10.1615 -10.1588 -10.1567 -10.1513 -10.1417
 -3.3269  -2.0912  -2.0911  -2.0895  -1.0255  -1.0224  -1.0211  -1.0201
 -1.0171  -0.9727  -0.9633  -0.9252  -0.9211  -0.9207  -0.9085  -0.9056
 -0.9038  -0.9007  -0.8933  -0.8828  -0.8782  -0.8185  -0.8128  -0.7765
 -0.7707  -0.7560  -0.7523  -0.7417  -0.7197  -0.7158  -0.7117  -0.7007
 -0.6934  -0.6902  -0.6799  -0.6617  -0.6492  -0.6251  -0.6177  -0.6013
 -0.5951  -0.5949  -0.5809  -0.5761  -0.5713  -0.5702  -0.5664  -0.5604
 -0.5526  -0.5488  -0.5474  -0.5324  -0.5056  -0.5015  -0.4982  -0.4821
 -0.4800  -0.4732  -0.4688  -0.4655  -0.4629  -0.4609  -0.4551  -0.4529
 -0.4501  -0.4483  -0.4466  -0.4452  -0.4431  -0.4398  -0.4369  -0.4342
 -0.4327  -0.4281  -0.4208  -0.4177  -0.4143  -0.4133  -0.4065  -0.4053
 -0.4033  -0.4021  -0.3998  -0.3967  -0.3960  -0.3913  -0.3907  -0.3885
 -0.3861  -0.3826  -0.3779  -0.3775  -0.3746  -0.3717  -0.3676  -0.3643
 -0.3614  -0.3601  -0.3594  -0.3538  -0.3505  -0.3492  -0.3461  -0.3440
 -0.3379  -0.3375  -0.3357  -0.3356  -0.3323  -0.3297  -0.3261  -0.3253
 -0.3198  -0.3167  -0.3147  -0.3113  -0.3083  -0.3050  -0.2997  -0.2933
 -0.2899  -0.2817  -0.2742  -0.2692  -0.2586  -0.2505  -0.2470  -0.2447
 -0.2438  -0.2421  -0.2391  -0.2375  -0.2334  -0.2328  -0.2305  -0.2299
 -0.2277  -0.2101  -0.2077  -0.2049  -0.2038  -0.2019  -0.1955  -0.1592
 -0.1542
 -- Virtual --
 -0.0160  -0.0048  -0.0022   0.0006   0.0135   0.0287   0.0294   0.0354
  0.0442   0.0524   0.0603   0.0614   0.0639   0.0677   0.0724   0.0738
  0.0777   0.0806   0.0818   0.0827   0.0834   0.0886   0.0901   0.0952
  0.0981   0.1005   0.1061   0.1087   0.1092   0.1108   0.1144   0.1216
  0.1259   0.1265   0.1293   0.1309   0.1347   0.1376   0.1411   0.1421
  0.1458   0.1495   0.1521   0.1560   0.1569   0.1601   0.1620   0.1656
  0.1666   0.1684   0.1740   0.1748   0.1771   0.1793   0.1810   0.1866
  0.1893   0.1931   0.1954   0.1968   0.2007   0.2050   0.2073   0.2108
  0.2126   0.2174   0.2207   0.2219   0.2269   0.2280   0.2324   0.2374
  0.2396   0.2450   0.2474   0.2501   0.2537   0.2544   0.2601   0.2629
  0.2647   0.2662   0.2697   0.2797   0.2838   0.2858   0.2874   0.2889
  0.2918   0.2956   0.3005   0.3037   0.3095   0.3213   0.3285   0.3317
  0.3414   0.3456   0.3492   0.3519   0.3553   0.3651   0.3696   0.3763
  0.3822   0.3899   0.3938   0.4012   0.4088   0.4100   0.4128   0.4171
  0.4190   0.4209   0.4263   0.4279   0.4317   0.4371   0.4398   0.4458
  0.4482   0.4522   0.4554   0.4569   0.4601   0.4663   0.4691   0.4698
  0.4722   0.4743   0.4787   0.4813   0.4844   0.4860   0.4889   0.4931
  0.4997   0.5002   0.5030   0.5056   0.5073   0.5101   0.5121   0.5196
  0.5222   0.5236   0.5262   0.5291   0.5339   0.5352   0.5386   0.5423
  0.5435   0.5451   0.5541   0.5560   0.5613   0.5639   0.5692   0.5713
  0.5737   0.5743   0.5785   0.5831   0.5841   0.5847   0.5862   0.5879
  0.5905   0.5919   0.5954   0.5966   0.5977   0.6046   0.6094   0.6102
  0.6136   0.6171   0.6204   0.6233   0.6261   0.6277   0.6307   0.6339
  0.6356   0.6365   0.6415   0.6419   0.6462   0.6479   0.6505   0.6522
  0.6532   0.6541   0.6555   0.6575   0.6587   0.6621   0.6641   0.6649
  0.6681   0.6696   0.6731   0.6750   0.6769   0.6794   0.6828   0.6864
  0.6875   0.6900   0.6929   0.6947   0.6967   0.6977   0.7007   0.7026
  0.7037   0.7075   0.7081   0.7102   0.7127   0.7147   0.7173   0.7201
  0.7223   0.7252   0.7264   0.7335   0.7377   0.7383   0.7406   0.7430
  0.7501   0.7518   0.7571   0.7601   0.7646   0.7665   0.7698   0.7774
  0.7795   0.7813   0.7852   0.7869   0.7919   0.7929   0.7965   0.8107
  0.8157   0.8219   0.8240   0.8316   0.8331   0.8407   0.8425   0.8462
  0.8515   0.8576   0.8588   0.8658   0.8672   0.8698   0.8797   0.8815
  0.8846   0.8907   0.8960   0.8989   0.9017   0.9083   0.9127   0.9148
  0.9197   0.9215   0.9273   0.9300   0.9364   0.9422   0.9452   0.9486
  0.9519   0.9576   0.9619   0.9642   0.9661   0.9684   0.9725   0.9834
  0.9876   0.9927   0.9943   1.0013   1.0032   1.0096   1.0138   1.0189
  1.0223   1.0282   1.0310   1.0411   1.0461   1.0470   1.0580   1.0626
  1.0673   1.0708   1.0716   1.0745   1.0803   1.0852   1.0887   1.0935
  1.0970   1.1008   1.1093   1.1133   1.1141   1.1188   1.1214   1.1265
  1.1295   1.1380   1.1417   1.1451   1.1474   1.1531   1.1564   1.1578
  1.1642   1.1672   1.1717   1.1737   1.1775   1.1818   1.1832   1.1896
  1.1971   1.1987   1.2007   1.2042   1.2075   1.2179   1.2191   1.2207
  1.2261   1.2285   1.2322   1.2369   1.2391   1.2448   1.2503   1.2530
  1.2580   1.2641   1.2661   1.2680   1.2731   1.2821   1.2827   1.2849
  1.2921   1.2955   1.2999   1.3069   1.3138   1.3212   1.3239   1.3300
  1.3362   1.3463   1.3479   1.3531   1.3603   1.3638   1.3712   1.3750
  1.3768   1.3843   1.3892   1.3910   1.3951   1.3979   1.4003   1.4069
  1.4119   1.4133   1.4206   1.4276   1.4329   1.4363   1.4395   1.4477
  1.4501   1.4532   1.4603   1.4634   1.4677   1.4753   1.4774   1.4829
  1.4888   1.4902   1.4971   1.5048   1.5076   1.5109   1.5198   1.5249
  1.5274   1.5330   1.5384   1.5440   1.5469   1.5489   1.5520   1.5567
  1.5601   1.5629   1.5681   1.5695   1.5712   1.5782   1.5805   1.5832
  1.5842   1.5889   1.5951   1.6000   1.6029   1.6077   1.6093   1.6141
  1.6178   1.6205   1.6245   1.6252   1.6293   1.6326   1.6394   1.6422
  1.6433   1.6455   1.6475   1.6502   1.6523   1.6565   1.6581   1.6609
  1.6622   1.6667   1.6693   1.6707   1.6727   1.6746   1.6762   1.6785
  1.6828   1.6861   1.6881   1.6900   1.6909   1.6925   1.6960   1.6984
  1.7003   1.7017   1.7046   1.7055   1.7111   1.7125   1.7169   1.7197
  1.7218   1.7234   1.7257   1.7307   1.7362   1.7381   1.7397   1.7426
  1.7449   1.7461   1.7488   1.7513   1.7524   1.7559   1.7599   1.7644
  1.7696   1.7726   1.7735   1.7787   1.7802   1.7811   1.7827   1.7874
  1.7912   1.7925   1.7946   1.7987   1.8022   1.8053   1.8079   1.8113
  1.8121   1.8158   1.8212   1.8222   1.8282   1.8324   1.8361   1.8382
  1.8431   1.8472   1.8491   1.8514   1.8557   1.8564   1.8581   1.8649
  1.8679   1.8712   1.8742   1.8774   1.8789   1.8824   1.8876   1.8904
  1.8959   1.8991   1.9038   1.9066   1.9104   1.9134   1.9179   1.9238
  1.9308   1.9345   1.9361   1.9424   1.9483   1.9504   1.9510   1.9520
  1.9540   1.9556   1.9582   1.9639   1.9662   1.9759   1.9770   1.9807
  1.9862   1.9913   1.9986   2.0028   2.0061   2.0135   2.0143   2.0215
  2.0240   2.0283   2.0307   2.0356   2.0415   2.0454   2.0492   2.0596
  2.0614   2.0667   2.0700   2.0718   2.0845   2.0857   2.0890   2.0921
  2.0944   2.0981   2.1024   2.1042   2.1113   2.1155   2.1193   2.1223
  2.1229   2.1276   2.1374   2.1435   2.1480   2.1518   2.1527   2.1611
  2.1688   2.1744   2.1804   2.1830   2.1907   2.1942   2.1990   2.2014
  2.2093   2.2141   2.2204   2.2289   2.2326   2.2389   2.2418   2.2459
  2.2492   2.2501   2.2522   2.2576   2.2613   2.2677   2.2728   2.2751
  2.2788   2.2838   2.2888   2.2949   2.2958   2.3037   2.3044   2.3134
  2.3148   2.3177   2.3236   2.3306   2.3356   2.3404   2.3438   2.3535
  2.3599   2.3659   2.3705   2.3734   2.3883   2.3910   2.3949   2.4031
  2.4103   2.4157   2.4215   2.4262   2.4324   2.4374   2.4395   2.4497
  2.4597   2.4617   2.4652   2.4725   2.4761   2.4858   2.4931   2.4940
  2.5009   2.5024   2.5060   2.5129   2.5171   2.5221   2.5297   2.5338
  2.5397   2.5433   2.5553   2.5714   2.5776   2.5791   2.5833   2.5890
  2.5935   2.5973   2.6079   2.6116   2.6236   2.6309   2.6335   2.6368
  2.6442   2.6567   2.6607   2.6672   2.6814   2.6848   2.6864   2.6905
  2.7006   2.7040   2.7058   2.7130   2.7198   2.7246   2.7302   2.7378
  2.7430   2.7504   2.7571   2.7597   2.7697   2.7725   2.7750   2.7799
  2.7816   2.7875   2.7943   2.7961   2.7994   2.8103   2.8187   2.8263
  2.8327   2.8366   2.8387   2.8572   2.8619   2.8785   2.8892   2.8986
  2.9146   2.9324   2.9383   2.9473   2.9746   2.9792   2.9864   3.0046
  3.0208   3.0247   3.0468   3.0577   3.0626   3.0831   3.0920   3.0980
  3.1131   3.1183   3.1242   3.1368   3.1408   3.1563   3.1631   3.1751
  3.1886   3.2020   3.2087   3.2263   3.2679   3.2770   3.3174   3.3447
  3.3532   3.4100   3.4245   3.4287   3.4407   3.4469   3.4670   3.4825
  3.4866   3.4937   3.4989   3.5092   3.5115   3.5151   3.5227   3.5258
  3.5347   3.5612   3.6458   3.7277   3.7449   3.8922   3.9381   3.9446
 --------------------------------------------------------------
 
          Ground-State Mulliken Net Atomic Charges

     Atom                 Charge (a.u.)    Spin (a.u.)
  --------------------------------------------------------
      1 C                     0.174865       0.003972
      2 C                    -0.035082       0.010981
      3 C                     0.015538      -0.001017
      4 C                    -0.034656       0.007475
      5 C                    -0.124392       0.007716
      6 C                     0.137389       0.011436
      7 H                    -0.072007       0.000251
      8 O                    -0.498793       0.098365
      9 C                     0.131904       0.000349
     10 O                    -0.349657       0.000736
     11 N                    -0.149297       0.000246
     12 H                     0.124862      -0.000036
     13 C                     0.086514       0.000113
     14 H                     0.020874       0.000028
     15 H                     0.026232       0.000006
     16 C                    -0.038313       0.000006
     17 H                     0.002134       0.000001
     18 H                     0.019055       0.000002
     19 C                     0.071740       0.000008
     20 H                     0.009026       0.000019
     21 H                    -0.002175       0.000002
     22 N                    -0.253886       0.000034
     23 H                     0.091885       0.000009
     24 C                    -0.033959       0.000414
     25 H                     0.031140       0.001217
     26 H                    -0.013332      -0.000016
     27 C                     0.050268       0.000016
     28 H                    -0.004267      -0.000014
     29 H                     0.041351      -0.000060
     30 C                    -0.005439      -0.000036
     31 H                    -0.009264       0.000019
     32 H                    -0.023387       0.000042
     33 C                     0.083962       0.000050
     34 H                     0.026725       0.000153
     35 H                     0.002093      -0.000002
     36 N                    -0.119993      -0.000340
     37 H                     0.126944       0.003587
     38 C                     0.075980      -0.000168
     39 O                    -0.363926       0.000196
     40 C                     0.139325       0.000674
     41 H                     0.026086       0.000419
     42 H                    -0.006604       0.001223
     43 C                     0.125402       0.002315
     44 H                     0.005339       0.000948
     45 H                    -0.000700       0.001408
     46 C                     0.112805       0.000361
     47 O                    -0.358764       0.000165
     48 N                    -0.126710       0.000135
     49 C                     0.098724      -0.000049
     50 H                     0.128811      -0.000103
     51 C                    -0.040763       0.000030
     52 H                     0.012240      -0.000011
     53 H                     0.017251      -0.000005
     54 C                    -0.034494       0.000003
     55 H                     0.001168       0.000010
     56 H                     0.025150       0.000003
     57 C                     0.088958      -0.000001
     58 H                    -0.006132      -0.000000
     59 H                     0.013944       0.000030
     60 H                     0.007021       0.000001
     61 H                     0.000709       0.000001
     62 C                     0.167505       0.000285
     63 C                     0.005425       0.002274
     64 O                    -0.345617       0.000759
     65 C                    -0.032417       0.003233
     66 C                    -0.042735       0.005686
     67 C                    -0.092499       0.008911
     68 C                     0.151672       0.009101
     69 C                     0.160894       0.008949
     70 H                    -0.067477       0.000439
     71 O                    -0.474749       0.108838
     72 C                    -0.071288       0.008499
     73 O                    -0.519940       0.127650
     74 C                     0.219341       0.008202
     75 O                    -0.433579       0.099510
     76 O                    -0.363581       0.015194
     77 H                    -0.039714       0.000026
     78 O                    -0.454703       0.127570
     79 H                    -0.059410       0.000465
     80 O                    -0.459270       0.116760
     81 Fe                    0.428297       4.193335
     82 N                    -0.270472       0.000002
     83 H                     0.093086       0.000017
     84 N                    -0.157954       0.000155
     85 H                     0.120948      -0.000001
     86 C                     0.085080      -0.000003
     87 H                     0.031786       0.000000
     88 H                     0.022815       0.000009
     89 C                    -0.016671       0.000014
     90 H                     0.002298       0.000007
     91 H                     0.009229       0.000000
     92 C                     0.056376       0.000003
     93 H                     0.018819       0.000000
     94 H                     0.009300      -0.000021
     95 H                    -0.074927       0.000257
     96 H                    -0.053290       0.000563
  --------------------------------------------------------
  Sum of atomic charges =    -3.000000
  Sum of spin   charges =     5.000000

 -----------------------------------------------------------------
                    Cartesian Multipole Moments
 -----------------------------------------------------------------
    Charge (ESU x 10^10)
               -14.4096
    Dipole Moment (Debye)
         X      -7.3883      Y      -4.6089      Z      17.7535
       Tot      19.7741
    Quadrupole Moments (Debye-Ang)
        XX    -491.9777     XY     -16.4516     YY    -428.3664
        XZ      24.0632     YZ     -23.8856     ZZ    -357.6637
    Octopole Moments (Debye-Ang^2)
       XXX     -53.6411    XXY      86.5914    XYY     -25.3838
       YYY    -334.3152    XXZ     594.0772    XYZ     -26.7780
       YYZ     221.5143    XZZ    -102.2062    YZZ     -13.7407
       ZZZ     450.8812
    Hexadecapole Moments (Debye-Ang^3)
      XXXX  -53394.2260   XXXY    -489.7579   XXYY   -9863.9869
      XYYY    -494.7807   YYYY  -10462.0676   XXXZ    2105.4275
      XXYZ    -859.5227   XYYZ     -51.1046   YYYZ     -39.2560
      XXZZ   -8247.5578   XYZZ     175.8861   YYZZ   -2193.3500
      XZZZ     242.8057   YZZZ    -205.6162   ZZZZ   -4091.3531
 -----------------------------------------------------------------
 Calculating analytic gradient of the SCF energy
 Gradient of SCF Energy
            1           2           3           4           5           6
    1   0.0825496  -0.0008681  -0.0368968  -0.0751260   0.0125295   0.0094567
    2  -0.0310144   0.0453454   0.0081662  -0.0089181   0.0286502  -0.0416102
    3  -0.0152340  -0.0083101   0.0154275   0.0167762  -0.0034444   0.0302433
            7           8           9          10          11          12
    1   0.0237778   0.0012290   0.1194954  -0.1309997  -0.0279836   0.0475756
    2   0.0716382  -0.0527481   0.0154560  -0.0374459   0.0105103   0.0074516
    3  -0.0536881   0.0484787  -0.0793899   0.1132451   0.0185960  -0.0252414
           13          14          15          16          17          18
    1   0.0057197  -0.0020986  -0.0372627  -0.0082467  -0.0246798   0.0312236
    2  -0.0079244   0.0247138  -0.0014133  -0.0091346  -0.0031906   0.0041713
    3  -0.0103619  -0.0173812   0.0213171   0.0203090  -0.0192619  -0.0179371
           19          20          21          22          23          24
    1   0.0190250   0.0039399  -0.0335295  -0.0021082   0.0032034  -0.0271893
    2   0.0157219   0.0127726  -0.0235093  -0.0207225  -0.0085758  -0.0138139
    3  -0.0377698   0.0430896  -0.0058249   0.0386367  -0.0384751   0.0200046
           25          26          27          28          29          30
    1   0.0591365  -0.0036712  -0.0343446   0.0126939  -0.0000026   0.0093310
    2   0.0311376  -0.0216261  -0.0274488   0.0393711   0.0204699   0.0259800
    3   0.0042676  -0.0526446  -0.0157186  -0.0314788   0.0560507   0.0034759
           31          32          33          34          35          36
    1   0.0227180  -0.0468970   0.0049885  -0.0240916  -0.0148880  -0.0532969
    2  -0.0450604  -0.0153282   0.0027745   0.0554324  -0.0457407  -0.0545190
    3  -0.0293197   0.0104006  -0.0233747   0.0262471   0.0394278   0.0004325
           37          38          39          40          41          42
    1   0.0493583   0.0660948  -0.0656033  -0.0044893   0.0353553   0.0196429
    2   0.1095395   0.1289352  -0.2053063   0.0445338  -0.0224538  -0.0370397
    3   0.0157529   0.0142935  -0.0253578  -0.0110177   0.0579014  -0.0491513
           43          44          45          46          47          48
    1  -0.0176731   0.0120765   0.0072322  -0.0523193   0.0366466   0.0333534
    2  -0.0064961   0.0610846  -0.0370199   0.1194239  -0.1911998  -0.0306742
    3   0.0276762  -0.0243262  -0.0478777  -0.0425783   0.0595621   0.0250971
           49          50          51          52          53          54
    1   0.0040407  -0.0158766   0.0136070  -0.0169084   0.0040262   0.0112494
    2   0.0011738   0.0874699  -0.0163545   0.0346035  -0.0483565   0.0175121
    3  -0.0202484  -0.0280302  -0.0142006   0.0413303   0.0236359   0.0085559
           55          56          57          58          59          60
    1   0.0264812  -0.0055335  -0.0226490   0.0034214  -0.0304188   0.0113912
    2  -0.0009205   0.0438276   0.0159774  -0.0376995  -0.0027359  -0.0276250
    3   0.0339297  -0.0181264   0.0007460   0.0179415  -0.0342010  -0.0230494
           61          62          63          64          65          66
    1   0.0246698  -0.1255758  -0.0198193   0.1281209   0.0765663   0.0309137
    2   0.0017637  -0.0312762  -0.0053425   0.0313403   0.0142100   0.0180292
    3   0.0279037  -0.0474563  -0.0132609   0.0980100  -0.0494155   0.0112283
           67          68          69          70          71          72
    1   0.0257559  -0.0652555  -0.0469148   0.0068760  -0.0185133  -0.0269598
    2   0.0218868  -0.0248032  -0.0260594  -0.0117752   0.0233707   0.0254437
    3   0.0130498   0.0239529  -0.0274617  -0.0799054   0.0658236   0.0275759
           73          74          75          76          77          78
    1   0.0186231   0.0501778  -0.0514786  -0.0414817  -0.0280436   0.0450612
    2  -0.0350033   0.1003556   0.0158987  -0.1175444  -0.0702760   0.0621672
    3   0.0167219   0.1806049  -0.0356523  -0.2115104   0.0352874  -0.0352207
           79          80          81          82          83          84
    1  -0.0053421  -0.0101270   0.0125501   0.0342162  -0.0124532   0.0320686
    2   0.0113459  -0.0112623  -0.0240048  -0.0168978   0.0279229   0.0176544
    3   0.0872114  -0.0798469   0.0053818  -0.0332141   0.0257481  -0.0028991
           85          86          87          88          89          90
    1  -0.0420494  -0.0173756   0.0253659   0.0055691  -0.0016751   0.0291380
    2  -0.0076381  -0.0153126   0.0035581   0.0240015   0.0005189  -0.0033423
    3  -0.0328212  -0.0021737   0.0255364  -0.0228145   0.0080985  -0.0127064
           91          92          93          94          95          96
    1  -0.0197263   0.0199418   0.0027606  -0.0356394   0.0522945  -0.0391572
    2  -0.0013712   0.0150542  -0.0310261   0.0011141   0.0188882   0.0481926
    3  -0.0249906   0.0161184  -0.0189911   0.0121105   0.0486670  -0.0285166
 Max gradient component =       2.115E-01
 RMS gradient           =       4.522E-02
 Computing fast CPCM-SWIG gradient
 Updating gradient with PCM contributions...
 -- total gradient after adding PCM contribution --
---------------------------------------------------
  Atom         X              Y              Z     
---------------------------------------------------
   1       0.041268       0.017009      -0.024285
   2       0.000294       0.017265      -0.002826
   3      -0.017404       0.003437      -0.001185
   4      -0.003281       0.003884      -0.002007
   5       0.013632       0.017050      -0.022707
   6      -0.012990      -0.040632       0.027543
   7       0.010792       0.011706      -0.006489
   8      -0.048775       0.002890       0.020911
   9       0.010102      -0.019807      -0.011732
  10      -0.020266      -0.004019       0.012325
  11       0.022380       0.014420       0.004378
  12      -0.006855      -0.001724       0.017324
  13      -0.003908       0.004020      -0.015837
  14      -0.004227      -0.005470       0.009141
  15       0.004879      -0.001038       0.002094
  16      -0.009341      -0.000574       0.001859
  17       0.002171       0.001716       0.005315
  18      -0.004515      -0.000625       0.006528
  19       0.001307      -0.007383      -0.009540
  20       0.004160       0.003059      -0.004691
  21       0.004793      -0.003729      -0.002466
  22      -0.003387      -0.006923       0.002873
  23       0.002637       0.007386       0.016573
  24      -0.005087      -0.003194       0.001916
  25      -0.002555       0.000818       0.000152
  26       0.003191      -0.000933       0.002414
  27       0.000859      -0.007677      -0.013550
  28       0.002547       0.002866       0.006303
  29      -0.005129      -0.000841      -0.004261
  30       0.000295      -0.002114      -0.004044
  31      -0.003062       0.000984       0.002478
  32       0.004375       0.001126       0.000208
  33      -0.005003      -0.004945      -0.005378
  34       0.007732      -0.003534       0.000126
  35      -0.002530       0.001375      -0.004040
  36       0.014887       0.006140       0.002309
  37       0.001280       0.017211       0.002689
  38      -0.006329       0.014042       0.003443
  39      -0.008824      -0.032993      -0.005130
  40       0.002440       0.006060      -0.014118
  41      -0.003044       0.008560      -0.005773
  42      -0.004512       0.001025       0.007406
  43       0.007670       0.016665      -0.016703
  44      -0.005521      -0.002256       0.003332
  45      -0.002278      -0.000031       0.010900
  46      -0.003255       0.010447       0.000113
  47       0.004228      -0.031030       0.009339
  48      -0.010382       0.003626      -0.010044
  49       0.003824       0.008291       0.009826
  50      -0.002264      -0.000645       0.001127
  51       0.002196      -0.004265      -0.002277
  52       0.001843      -0.004546      -0.002636
  53      -0.005417       0.005933      -0.007996
  54       0.005989      -0.003886       0.003432
  55      -0.001822       0.001940      -0.003933
  56       0.002442      -0.003084       0.002635
  57      -0.005614       0.003414       0.000760
  58      -0.001043       0.002452      -0.003449
  59       0.002173       0.000757       0.005610
  60       0.000556       0.004334       0.001156
  61      -0.001855       0.001369      -0.004835
  62      -0.018812      -0.007854      -0.001702
  63      -0.002213      -0.000513      -0.006168
  64       0.028671       0.004080       0.020833
  65       0.000401       0.001684      -0.006857
  66       0.014974       0.001394      -0.012193
  67       0.000088       0.000015       0.017216
  68      -0.032122      -0.001275       0.047760
  69      -0.004563      -0.013176      -0.048444
  70       0.000340      -0.001612      -0.008543
  71       0.061132       0.026469       0.019157
  72       0.008178       0.004784       0.042102
  73       0.000025      -0.035961      -0.008927
  74      -0.034635       0.039433      -0.003432
  75       0.010899      -0.069055      -0.040588
  76       0.003204      -0.017102      -0.018560
  77       0.000017      -0.000408      -0.000250
  78      -0.041585       0.040871      -0.002216
  79      -0.002063       0.000894       0.008933
  80       0.047123       0.026221      -0.025609
  81       0.005372      -0.025717       0.032069
  82       0.006942       0.002361       0.004490
  83      -0.001192      -0.013005      -0.011645
  84      -0.014475       0.008009      -0.001317
  85       0.006479      -0.000227       0.009019
  86       0.006384      -0.005493      -0.007482
  87      -0.013639       0.002750      -0.000780
  88      -0.001384      -0.003912       0.004082
  89      -0.001624      -0.004439      -0.002360
  90      -0.004559       0.001383       0.002120
  91       0.004536      -0.000471       0.002974
  92      -0.000076       0.008072       0.003353
  93       0.000833       0.003145       0.006970
  94       0.001105      -0.001704      -0.006277
  95       0.006319       0.002265       0.000186
  96      -0.006549       0.002718      -0.000522
---------------------------------------------------
 Number of fixed atoms: 0
 Gradient time:  CPU 36099.21 s  wall 1889.34 s

 *****************************************************
             Starting BFGS Algorithm
 *****************************************************
            LIBOPT3 RUN PARAMETERS

  Geometry Optimization Coordinates :
	Delocalized Natural Internal Coordinates

  Step Length Selection Method :
	Eigenvector Following Algorithm

  Convergence Criteria :
	Max Gradient Component    	3.00000000e-04
	Max Displacement Component	1.20000000e-03
	Absolute Energy Difference	1.00000000e-06

  Initial Hessian :
	Approximate Hessian - Simple Internal Coordinate Scaled

  Type of Verification :
	Verify with final updated Hessian
 *****************************************************

	OPTIMIZATION CYCLE:	1

 Scaling Magnitude of Eigenvalues
 	Minimum: -25.00000000	 Maximum: 25.00000000
 282 Hessian Eigenvalues to form next step
   0.10000000   0.10000000   0.10000000   0.10000000   0.10000000
   0.10000000   0.10000000   0.10000000   0.10000000   0.10000000
   0.10000000   0.10000000   0.10000000   0.10000000   0.10000000
   0.10000000   0.10000053   0.10000192   0.10000217   0.10000242
   0.10000529   0.10000615   0.10000738   0.10001002   0.10001247
   0.10001889   0.10002319   0.10002747   0.10003008   0.10003787
   0.10004981   0.10006734   0.10007957   0.10008680   0.10009330
   0.10011338   0.10011586   0.10012432   0.10014849   0.10018590
   0.10019551   0.10024134   0.10031311   0.10040576   0.10063929
   0.10090457   0.10118497   0.10446079   0.10482954   0.10548211
   0.10715778   0.10865941   0.10944951   0.11057818   0.11323754
   0.11359831   0.11424306   0.11641588   0.11706665   0.11834634
   0.11945789   0.11978351   0.12070979   0.12076401   0.12177111
[...]
  30       0.000056      -0.000083       0.000019
  31      -0.000020      -0.000003       0.000005
  32      -0.000001       0.000027       0.000008
  33      -0.000035       0.000101      -0.000060
  34      -0.000004      -0.000030       0.000007
  35       0.000012      -0.000020       0.000010
  36       0.000019      -0.000031       0.000034
  37       0.000004       0.000003       0.000013
  38      -0.000014      -0.000011       0.000011
  39      -0.000010      -0.000003      -0.000034
  40       0.000010       0.000062      -0.000080
  41      -0.000011      -0.000003       0.000015
  42       0.000025      -0.000012       0.000041
  43      -0.000062       0.000029      -0.000011
  44      -0.000011      -0.000002       0.000004
  45       0.000010      -0.000001       0.000008
  46       0.000076      -0.000010      -0.000051
  47      -0.000021      -0.000002       0.000017
  48      -0.000043      -0.000008       0.000046
  49      -0.000006       0.000046      -0.000030
  50       0.000012       0.000000      -0.000013
  51       0.000008      -0.000048       0.000008
  52       0.000003      -0.000009      -0.000000
  53      -0.000000       0.000002       0.000001
  54      -0.000022       0.000055       0.000000
  55      -0.000009      -0.000005       0.000000
  56       0.000023       0.000007       0.000011
  57      -0.000004       0.000005      -0.000058
  58       0.000025      -0.000002       0.000001
  59      -0.000010      -0.000018       0.000014
  60      -0.000004       0.000001       0.000015
  61       0.000009       0.000006      -0.000001
  62       0.000009      -0.000048      -0.000016
  63       0.000013       0.000016      -0.000003
  64       0.000008       0.000010       0.000010
  65      -0.000033       0.000007      -0.000017
  66       0.000005      -0.000015       0.000003
  67      -0.000001      -0.000004       0.000013
  68      -0.000007       0.000001      -0.000027
  69       0.000009      -0.000014       0.000018
  70       0.000011      -0.000002      -0.000001
  71       0.000005       0.000030       0.000034
  72       0.000040      -0.000088       0.000060
  73       0.000076       0.000049       0.000027
  74      -0.000088       0.000031      -0.000055
  75       0.000047      -0.000002      -0.000000
  76      -0.000007      -0.000005       0.000004
  77      -0.000007      -0.000003       0.000002
  78       0.000007       0.000064       0.000037
  79       0.000003      -0.000001       0.000007
  80      -0.000035       0.000059      -0.000013
  81      -0.000026      -0.000104       0.000010
  82       0.000006      -0.000003       0.000051
  83      -0.000012       0.000005      -0.000015
  84      -0.000003       0.000055       0.000032
  85      -0.000001       0.000002      -0.000003
  86       0.000023      -0.000008      -0.000019
  87      -0.000005       0.000015      -0.000004
  88      -0.000009      -0.000006      -0.000000
  89       0.000003      -0.000027       0.000022
  90      -0.000010      -0.000003      -0.000009
  91      -0.000007       0.000014       0.000007
  92      -0.000022       0.000026      -0.000029
  93       0.000028       0.000005       0.000008
  94       0.000003      -0.000008      -0.000009
  95      -0.000011      -0.000002       0.000009
  96       0.000000       0.000015       0.000011
---------------------------------------------------
 Number of fixed atoms: 0
 Gradient time:  CPU 34557.68 s  wall 1808.79 s

     Step 35	:
        Energy is -3742.9469638474
                            Maximum         Tolerance       Converged?
         Gradient           5.88838730e-05	3.00000000e-04	true
         Displacement       2.03233749e-03	1.20000000e-03	false
         Energy change      7.30486136e-07	1.00000000e-06	true

	 Optimization Converged in 35 cycles

 *****************************************************
             End of BFGS Algorithm
 *****************************************************
		----------------------------------
		   Verification of Optimization
		----------------------------------

 Eigenvalues of Hessian in Optimization Verification
   0.00190334   0.00392197   0.00655432   0.01154863   0.01641349
   0.03065657   0.04184880   0.06529521   0.09365863   0.09915372
   0.10000033   0.10000107   0.10000123   0.10000175   0.10000282
   0.10000546   0.10000636   0.10000865   0.10000894   0.10001215
   0.10001503   0.10002177   0.10002233   0.10002507   0.10002842
   0.10003699   0.10003785   0.10005690   0.10006153   0.10006920
   0.10009013   0.10009063   0.10010419   0.10011413   0.10012596
   0.10014685   0.10015173   0.10020244   0.10026555   0.10029752
   0.10035068   0.10050899   0.10060603   0.10075702   0.10100083
   0.10117057   0.10204401   0.10324775   0.10422322   0.10473675
   0.10637901   0.10782535   0.10823601   0.10888256   0.10929884
   0.11143666   0.11291874   0.11313064   0.11382007   0.11630247
   0.11729351   0.11876741   0.11917425   0.11968651   0.12038753
   0.12062246   0.12288405   0.12321779   0.12401401   0.12438261
   0.12488541   0.12578313   0.12587623   0.12626094   0.12642049
   0.12686005   0.12728617   0.12758410   0.12796885   0.12911007
   0.12958554   0.12974594   0.13029714   0.13043265   0.13148878
   0.13196555   0.13314121   0.13485443   0.13702128   0.13837488
   0.14224965   0.14256508   0.14588377   0.14747795   0.14811928
   0.14957278   0.14981216   0.15109749   0.15198475   0.15225104
   0.15256952   0.15271668   0.15317577   0.15378545   0.15456524
   0.15530055   0.15576768   0.15597850   0.15643296   0.15775536
   0.15891522   0.15965965   0.16135638   0.16449355   0.17066202
   0.17094201   0.17318464   0.17404004   0.17512047   0.17573504
   0.17685496   0.17720526   0.17750222   0.17795964   0.17887548
   0.17904827   0.17960952   0.18051494   0.18197598   0.18231037
   0.18236913   0.18433810   0.18667683   0.18736413   0.18928106
   0.19170092   0.19480442   0.19592845   0.19664870   0.19762420
   0.19794416   0.19840787   0.19891070   0.19919536   0.19933771
   0.19946962   0.19952092   0.19956760   0.19969365   0.19971378
   0.19976303   0.19982716   0.19985326   0.19991343   0.19994072
   0.19994788   0.19997564   0.19998917   0.19999648   0.20009086
   0.20013992   0.20037748   0.20080717   0.20090883   0.20154378
   0.20205470   0.20805979   0.21107321   0.21148703   0.21529992
   0.22152077   0.22341278   0.23725337   0.24502951   0.25847103
   0.26770485   0.27227229   0.28527979   0.29113785   0.33383915
   0.35338194   0.38571870   0.39348956   0.40321343   0.41173689
   0.42557718   0.43075842   0.44781573   0.45319491   0.46012181
   0.46463653   0.46689561   0.47317395   0.47684028   0.48683710
   0.48984868   0.49074428   0.49204331   0.49309454   0.49421292
   0.49506688   0.49595676   0.49824479   0.49837708   0.49924599
   0.49942447   0.49959021   0.49971028   0.49981638   0.49986689
   0.49991591   0.49996455   0.49997328   0.49999607   0.50000000
   0.50000000   0.50000000   0.50000000   0.50000000   0.50000000
   0.50000000   0.50000000   0.50000000   0.50000000   0.50000000
   0.50000000   0.50000000   0.50000000   0.50000000   0.50000000
   0.50000000   0.50000000   0.50000000   0.50000000   0.50000000
   0.50000000   0.50000000   0.50000000   0.50000000   0.50000000
   0.50000000   0.50000000   0.50000000   0.50000000   0.50000000
   0.50000000   0.50000000   0.50000000   0.50000000   0.50000000
   0.50000000   0.50000012   0.50000015   0.50000022   0.50000048
   0.50000062   0.50000074   0.50000507   0.50000861   0.50003088
   0.50005786   0.50008579   0.50026475   0.50054059   0.50069082
   0.50096096   0.50115635   0.50396908   0.50483465   0.50696051
   0.50805592   0.51216994   0.51496770   0.51676306   0.52481159
   0.53401196   0.54455867   0.55390609   0.56840758   0.58431500
   0.58763007   0.69721270

 Found a minimum
		---------------------------------
		       End of Verification
		---------------------------------

 Final energy is -3742.946963847357

	******************************
	**  OPTIMIZATION CONVERGED  **
	******************************
 Adding empirical dispersion correction 
 ----------------------------------------------------------------
 Doing -D3(BJ) with
 s6  =   1.00000
 s8  =   1.98890
 a1  =   0.39810
 a2  =   4.42110
 -D3 energy without 3body term =     -0.2447734996 hartrees
 ----------------------------------------------------------------
             Standard Nuclear Orientation (Angstroms)
    I     Atom           X                Y                Z
 ----------------------------------------------------------------
    1      C       2.6394891728    -2.3530257082     0.1213320868
    2      C       3.6629686774    -3.1654780150     0.6451794411
    3      C       4.9917127887    -3.0117244625     0.2239921367
    4      C       5.3177184036    -2.0733517928    -0.7670663355
    5      C       4.2881646713    -1.3021447305    -1.3544873281
    6      C       2.9720101967    -1.3870604291    -0.8995945604
    7      H       3.4038614032    -3.9063527224     1.4074165432
    8      O       1.9831504436    -0.6085398535    -1.3244471704
    9      C       6.7165045303    -1.7265163048    -1.1307063113
   10      O       7.0231333561    -1.2251873978    -2.2260037366
   11      N       7.6434812658    -1.9311455891    -0.1445274935
   12      H       7.2759623883    -2.1431411348     0.7766009322
   13      C       8.9778117953    -1.3506434030    -0.1728802359
   14      H       9.6859919195    -2.0816202603     0.2507877517
   15      H       9.2454973864    -1.1969913567    -1.2275561236
   16      C       9.0754942530    -0.0297363587     0.6058521464
   17      H      10.1476432965     0.2011434377     0.7293237159
   18      H       8.6770253442    -0.1845099672     1.6249812048
   19      C       8.3580374728     1.1887513426    -0.0466860499
   20      H       7.9926594849     0.9033234266    -1.0463310324
   21      H       9.1041388515     1.9862365569    -0.1990236384
   22      N       7.2317236352     1.7855009340     0.6736458523
   23      H       7.5172764689     1.9967563785     1.6327215720
   24      C       4.8101798268     1.7858049043     1.2032188176
   25      H       3.9422234423     1.1099856151     1.3023144136
   26      H       5.0331604593     2.1548370343     2.2206241548
   27      C       6.0117229922     0.9792753438     0.6977946936
   28      H       6.1108278737     0.0496774904     1.2947290159
   29      H       5.8160489725     0.6566835278    -0.3346986987
   30      C       4.4584413107     2.9638022023     0.2866363686
   31      H       3.9242520189     3.7504432321     0.8390277119
   32      H       5.4022345399     3.4103848170    -0.0671028840
   33      C       3.6034812463     2.5893668400    -0.9347707527
   34      H       3.9497571286     1.6442058993    -1.3751249671
   35      H       3.7076150164     3.3776400135    -1.6992355483
   36      N       2.1861485993     2.4232213089    -0.6273011352
   37      H       1.7389399340     1.5167435584    -0.7883233366
   38      C       1.4095958745     3.4985352996    -0.3629443174
   39      O       1.8729656189     4.6508548971    -0.3173715546
   40      C      -0.0763230024     3.2723683889    -0.1290352756
   41      H      -0.6060286403     3.5501313837    -1.0537832755
   42      H      -0.3717974452     4.0047064336     0.6343972896
   43      C      -2.0277653013     1.8559097672     0.6964936230
   44      H      -2.2688846950     0.8361390238     1.0279933947
   45      H      -2.1707383883     2.5549395282     1.5325413648
   46      C      -2.9406847066     2.2837358755    -0.4335309127
   47      O      -3.1371081741     3.4807134045    -0.7006290745
   48      N      -3.5060100540     1.2765754925    -1.1428113021
   49      C      -4.3331086600     1.4911662210    -2.3214117759
   50      H      -3.2701481591     0.3211403149    -0.8876667707
   51      C      -5.8279243997     1.2728072555    -2.0652605543
   52      H      -3.9896181958     0.8021591600    -3.1090343130
   53      H      -4.1500713571     2.5224681307    -2.6560763013
   54      C      -6.4260984550     2.2317019631    -1.0360794215
   55      H      -6.3601876938     1.3833025853    -3.0282667230
   56      H      -5.9874324800     0.2311570111    -1.7466184072
   57      C      -7.8864424153     1.9081094845    -0.6756928005
   58      H      -6.3747527233     3.2675362142    -1.4165427276
   59      H      -5.8110476356     2.2123501513    -0.1211392768
   60      H      -8.2722107728     2.7053559090    -0.0141452818
   61      H      -8.5005127540     1.9361346994    -1.5932435496
   62      C      -6.1717564167    -2.1918175063    -0.4808005226
   63      C      -4.3349847573    -2.2768754359    -2.1385197078
   64      O      -7.0419316100    -2.0126908866    -1.3595787047
   65      C      -4.7242556224    -2.1619192774    -0.7965952894
   66      C      -2.9899893753    -2.1614713158    -2.5077409237
   67      C      -3.7314550414    -1.9184492374     0.1883105992
   68      C      -1.9938231626    -1.9028818726    -1.5455789667
   69      C      -2.3831935231    -1.7823728777    -0.1558877669
   70      H      -3.9961314729    -1.7655105209     1.2380594980
   71      O      -0.7210731452    -1.7291262875    -1.8230153114
   72      C      -0.5191692765     1.8546644025     0.2781081274
   73      O      -0.3055923926     0.9575414726    -0.7635677556
   74      C       0.2672979571     1.4173156492     1.5523456315
   75      O       0.7697664548     0.2306356038     1.4986110576
   76      O       0.3566409360     2.1885471944     2.5220692130
   77      H       4.5455434308    -0.5675697924    -2.1200600726
   78      O       1.3817841940    -2.3986177175     0.5091963130
   79      H      -2.6911302697    -2.2442707091    -3.5568427395
   80      O      -1.4219009496    -1.4971019096     0.7087726113
   81      Fe      0.2702869927    -0.8525833283    -0.2437676850
   82      N      -8.1385798907     0.6219075787    -0.0174152119
   83      H      -7.9015101907    -0.1394612161    -0.6591874810
   84      N      -6.5246876984    -2.4045316958     0.8196472914
   85      H      -5.7823666591    -2.5163149141     1.5004542191
   86      C      -7.8527755005    -2.0945470939     1.3271480139
   87      H      -8.5302724305    -2.0986075046     0.4636523568
   88      H      -8.1764041716    -2.8942151519     2.0119502609
   89      C      -7.9095932676    -0.7391304401     2.0497798321
   90      H      -8.9588317310    -0.5511505947     2.3366644974
   91      H      -7.3214358318    -0.8024164638     2.9823830841
   92      C      -7.3847686973     0.4376878042     1.2241767146
   93      H      -7.4893378632     1.3596446299     1.8221908115
   94      H      -6.2962422761     0.3031465617     1.0561174684
   95      H      -5.1047237906    -2.4425153924    -2.8933849291
   96      H       5.7684411974    -3.6403279267     0.6661873893
 ----------------------------------------------------------------
 Nuclear Repulsion Energy =        8332.54900584 hartrees
 There are      206 alpha and      201 beta electrons

Z-matrix Print:
$molecule
-3 6
Fe
O  1 1.969361
C  2 1.391234 1 116.101674
C  3 1.540053 2 110.580419 1 143.655269 0
H  4 1.098387 3 110.650529 2 172.083028 0
H  4 1.101317 3 108.412265 2 55.488792 0
C  4 1.521125 3 117.285352 2 -66.604880 0
O  7 1.242831 4 119.763576 3 -159.675010 0
N  7 1.352486 4 118.211084 3 20.859906 0
H  9 1.023536 7 118.948133 4 8.263279 0
C  9 1.459786 7 120.540542 4 176.500392 0
H  11 1.098703 9 107.008331 7 -164.754379 0
H  11 1.103007 9 108.601366 7 -48.525022 0
C  11 1.537203 9 113.601392 7 72.823055 0
H  14 1.099681 11 107.649585 9 -45.003911 0
H  14 1.102412 11 108.655073 9 -160.192658 0
C  14 1.533467 11 114.543361 9 79.148425 0
H  17 1.104491 14 110.085318 11 -39.683465 0
H  17 1.104997 14 109.881399 11 -156.402668 0
C  17 1.532857 14 112.762126 11 82.126763 0
H  20 1.099271 17 108.939802 14 -54.830264 0
H  20 1.109191 17 109.484745 14 -170.317396 0
N  20 1.462527 17 111.670560 14 63.312604 0
H  23 1.022739 20 109.346910 17 68.500106 0
C  23 1.464094 20 115.160758 17 -167.978438 0
H  25 1.101935 23 107.266872 20 52.128792 0
H  25 1.102659 23 107.080743 20 166.285080 0
C  25 1.557325 23 117.850433 20 -71.604218 0
H  28 1.103655 25 109.313942 23 -122.841095 0
H  28 1.105150 25 109.260678 23 -7.201808 0
C  28 1.536477 25 115.530480 23 115.981080 0
H  31 1.098911 28 110.532383 25 49.349813 0
H  31 1.102425 28 109.537065 25 167.941426 0
N  31 1.455412 28 113.036054 25 -70.968501 0
H  34 1.014145 31 115.678107 28 -59.000460 0
C  34 1.368834 31 123.175232 28 94.882344 0
O  36 1.242992 34 121.876069 31 12.779948 0
C  36 1.486315 34 115.224886 31 -163.890546 0
C  38 1.403218 36 123.195110 34 -25.229648 0
H  39 1.092697 38 120.356282 36 -9.387920 0
C  39 1.402355 38 120.369602 36 171.458651 0
H  41 1.094092 39 120.522759 38 179.117965 0
C  41 1.407837 39 120.917218 38 -2.316167 0
O  43 1.316943 41 124.382779 39 -176.908390 0
C  38 1.414144 36 117.147179 34 147.560149 0
H  45 1.091763 38 119.116118 36 6.466222 0
C  45 1.395135 38 121.210992 36 -168.350369 0
O  47 1.328321 45 124.217776 38 173.788077 0
C  3 1.559963 2 110.696560 1 22.483873 0
O  49 1.242234 3 119.989994 2 169.690157 0
O  49 1.289795 3 114.854780 2 -11.136728 0
C  3 1.565538 2 110.398314 1 -93.994189 0
H  52 1.099074 3 106.934182 2 60.588927 0
H  52 1.099118 3 109.216398 2 178.870563 0
C  52 1.514402 3 112.439512 2 -61.224565 0
O  55 1.242046 52 121.873983 3 -82.248020 0
N  55 1.355376 52 115.594404 3 96.653751 0
H  57 1.016654 55 118.049980 52 -1.221567 0
C  57 1.455761 55 123.443676 52 -175.452772 0
H  59 1.099585 57 106.863238 55 16.166040 0
H  59 1.101393 57 108.032707 55 132.731534 0
C  59 1.532243 57 113.448493 55 -105.612210 0
H  62 1.100914 59 108.939633 57 -61.004142 0
H  62 1.105846 59 108.043628 57 -175.814942 0
C  62 1.528563 59 113.886850 57 62.183645 0
H  65 1.102623 62 109.232185 59 -51.591780 0
H  65 1.104691 62 109.763488 59 64.277003 0
C  65 1.538569 62 113.403702 59 -173.829754 0
H  68 1.104431 65 109.135309 62 -58.262742 0
H  68 1.105470 65 108.645677 62 -174.065986 0
N  68 1.466703 65 116.919135 62 63.861966 0
H  71 1.023600 68 109.333515 65 -64.657085 0
C  71 1.464144 68 113.729814 65 56.899433 0
H  73 1.103884 71 107.790420 68 46.868732 0
H  73 1.109610 71 113.071823 68 -70.004860 0
C  73 1.530347 71 112.189728 68 166.275440 0
H  76 1.103875 73 109.586262 71 -61.443388 0
H  76 1.104393 73 108.481373 71 -178.234937 0
C  76 1.537068 73 114.317871 71 59.817445 0
H  79 1.097562 76 110.506863 73 -65.484563 0
H  79 1.101435 76 109.697840 73 175.837989 0
N  79 1.455151 76 112.678072 73 53.841013 0
H  82 1.013427 79 117.240685 76 63.349427 0
C  82 1.364175 79 122.369399 76 -98.398242 0
O  84 1.249617 82 120.835954 79 -16.529850 0
C  84 1.481850 82 117.323662 79 162.539547 0
C  86 1.401966 84 118.265116 82 164.528187 0
H  87 1.090759 86 118.615248 84 -3.539327 0
C  87 1.399520 86 120.837397 84 175.489314 0
H  89 1.093978 87 120.617175 86 -179.536637 0
C  89 1.408890 87 120.962528 86 -1.154734 0
O  91 1.314174 89 124.392925 87 -177.170145 0
C  86 1.419496 84 122.601195 82 -20.499735 0
H  93 1.093351 86 121.389526 84 1.547493 0
C  93 1.398141 86 121.354597 84 -174.456630 0
O  95 1.324047 93 124.078335 86 176.919507 0
$end

 -----------------------------------------------------------------------
                  END OF GEOMETRY OPTIMIZER USING LIBOPT3               
 -----------------------------------------------------------------------
 Total job time:  153985.17s(wall), 2544813.16s(cpu) 
 Sun Dec 17 07:23:04 2023

        *************************************************************
        *                                                           *
        *  Thank you very much for using Q-Chem.  Have a nice day.  *
        *                                                           *
        *************************************************************


