
Running Job 1 of 1 C_FePB_ctL2_3sextet_b3lypD3bj_ccpVDZ_pcmH2O_opt_2.in
qchem C_FePB_ctL2_3sextet_b3lypD3bj_ccpVDZ_pcmH2O_opt_2.in_2544374.0 /data/scratch/C_FePB_ctL2_3sextet_b3lypD3bj_ccpVDZ_pcmH2O_opt_220231219080731/ 0
/opt/qchem/6.0.1/exe/qcprog.exe_s C_FePB_ctL2_3sextet_b3lypD3bj_ccpVDZ_pcmH2O_opt_2.in_2544374.0 /data/scratch/C_FePB_ctL2_3sextet_b3lypD3bj_ccpVDZ_pcmH2O_opt_220231219080731/
                  Welcome to Q-Chem
     A Quantum Leap Into The Future Of Chemistry


 Q-Chem 6.0, Q-Chem, Inc., Pleasanton, CA (2022)

 E. Epifanovsky,  A. T. B. Gilbert,  Xintian Feng,  Joonho Lee,  Yuezhi Mao,  
 N. Mardirossian,  P. Pokhilko,  A. White,  M. Wormit,  M. P. Coons,  
 A. L. Dempwolff,  Zhengting Gan,  D. Hait,  P. R. Horn,  L. D. Jacobson,  
 I. Kaliman,  J. Kussmann,  A. W. Lange,  Ka Un Lao,  D. S. Levine,  Jie Liu,  
 S. C. McKenzie,  A. F. Morrison,  K. Nanda,  F. Plasser,  D. R. Rehn,  
 M. L. Vidal,  Zhi-Qiang You,  Ying Zhu,  B. Alam,  B. Albrecht,  
 A. Aldossary,  E. Alguire,  J. H. Andersen,  V. Athavale,  D. Barton,  
 K. Begam,  A. Behn,  N. Bellonzi,  Y. A. Bernard,  E. J. Berquist,  
 H. Burton,  A. Carreras,  K. Carter-Fenk,  Romit Chakraborty,  
 Chandrima Chakravarty,  Junhan Chen,  A. D. Chien,  K. D. Closser,  
 V. Cofer-Shabica,  L. Cunha,  S. Dasgupta,  Jia Deng,  M. de Wergifosse,  
 M. Diedenhofen,  Hainam Do,  S. Ehlert,  Po-Tung Fang,  S. Fatehi,  
 Qingguo Feng,  T. Friedhoff,  B. Ganoe,  J. Gayvert,  Qinghui Ge,  
 G. Gidofalvi,  M. Goldey,  J. Gomes,  C. Gonzalez-Espinoza,  S. Gulania,  
 A. Gunina,  J. A. Gyamfi,  M. W. D. Hanson-Heine,  P. H. P. Harbach,  
 A. W. Hauser,  M. F. Herbst,  M. Hernandez Vera,  M. Hodecker,  
 Z. C. Holden,  S. Houck,  Xunkun Huang,  Kerwin Hui,  B. C. Huynh,  
 K. Ikeda,  M. Ivanov,  Hyunjun Ji,  Zuxin Jin,  Hanjie Jiang,  B. Kaduk,  
 S. Kaehler,  R. Kang,  K. Khistyaev,  Jaehoon Kim,  Yongbin Kim,  
 P. Klunzinger,  Z. Koczor-Benda,  Joong Hoon Koh,  D. Kosenkov,  
 Saikiran Kotaru,  L. Koulias,  T. Kowalczyk,  C. M. Krauter,  K. Kue,  
 A. Kunitsa,  T. Kus,  A. Landau,  K. V. Lawler,  D. Lefrancois,  S. Lehtola,  
 Rain Li,  Shaozhi Li,  Yi-Pei Li,  Jiashu Liang,  M. Liebenthal,  
 Hung-Hsuan Lin,  You-Sheng Lin,  Fenglai Liu,  Kuan-Yu Liu,  
 M. Loipersberger,  A. Luenser,  C. Malbon,  A. Manjanath,  P. Manohar,  
 E. Mansoor,  S. F. Manzer,  Shan-Ping Mao,  A. V. Marenich,  T. Markovich,  
 S. Mason,  F. Matz,  S. A. Maurer,  P. F. McLaughlin,  M. F. S. J. Menger,  
 J.-M. Mewes,  S. A. Mewes,  P. Morgante,  Mohammad Mostafanejad,  
 J. W. Mullinax,  K. J. Oosterbaan,  G. Paran,  V. Parravicini,  
 Alexander C. Paul,  Suranjan K. Paul,  F. Pavosevic,  Zheng Pei,  S. Prager,  
 E. I. Proynov,  E. Ramos,  B. Rana,  A. E. Rask,  A. Rettig,  R. M. Richard,  
 F. Rob,  E. Rossomme,  T. Scheele,  M. Scheurer,  M. Schneider,  
 P. E. Schneider,  N. Sergueev,  S. M. Sharada,  Hengyuan Shen,  
 W. Skomorowski,  D. W. Small,  C. J. Stein,  Yingli Su,  Yu-Chuan Su,  
 E. J. Sundstrom,  Zhen Tao,  J. Thirman,  Hung-Yi Tsai,  T. Tsuchimochi,  
 N. M. Tubman,  C. Utku,  S. P. Veccham,  O. Vydrov,  J. Wenzel,  
 Jonathan Wong,  J. Witte,  A. Yamada,  Chou-Hsun Yang,  Kun Yao,  
 S. Yeganeh,  S. R. Yost,  A. Zech,  F. Zeller,  Igor Ying Zhang,  
 Xing Zhang,  Yu Zhang,  D. Zuev,  A. Aspuru-Guzik,  A. T. Bell,  
 N. A. Besley,  K. B. Bravaya,  B. R. Brooks,  D. Casanova,  Jeng-Da Chai,  
 Hsing-Ta Chen,  S. Coriani,  C. J. Cramer,  A. E. DePrince, III,  
 R. A. DiStasio Jr.,  A. Dreuw,  B. D. Dunietz,  T. R. Furlani,  
 W. A. Goddard III,  S. Grimme,  S. Hammes-Schiffer,  T. Head-Gordon,  
 W. J. Hehre,  Chao-Ping Hsu,  T.-C. Jagau,  Yousung Jung,  A. Klamt,  
 Jing Kong,  D. S. Lambrecht,  Xiangyuan Li,  WanZhen Liang,  N. J. Mayhall,  
 C. W. McCurdy,  J. B. Neaton,  T. Neudecker,  C. Ochsenfeld,  
 J. A. Parkhill,  R. Peverati,  V. A. Rassolov,  Haisheng Ren,  Yihan Shao,  
 L. V. Slipchenko,  R. P. Steele,  J. E. Subotnik,  A. J. W. Thom,  
 A. Tkatchenko,  D. G. Truhlar,  T. Van Voorhis,  Fan Wang,  
 T. A. Wesolowski,  K. B. Whaley,  H. L. Woodcock III,  P. M. Zimmerman,  
 S. Faraji,  P. M. W. Gill,  M. Head-Gordon,  J. M. Herbert,  A. I. Krylov

 Contributors to earlier versions of Q-Chem not listed above: 
 R. D. Adamson,  B. Austin,  R. Baer,  J. Baker,  G. J. O. Beran,  
 K. Brandhorst,  S. T. Brown,  E. F. C. Byrd,  Arup K. Chakraborty,  
 G. K. L. Chan,  Chun-Min Chang,  Yunqing Chen,  C.-L. Cheng,  
 Siu Hung Chien,  D. M. Chipman,  D. L. Crittenden,  H. Dachsel,  
 R. J. Doerksen,  A. D. Dutoi,  R. G. Edgar,  J. Fosso-Tande,  
 L. Fusti-Molnar,  D. Ghosh,  A. Ghysels,  A. Golubeva-Zadorozhnaya,  
 J. Gonthier,  M. S. Gordon,  S. R. Gwaltney,  G. Hawkins,  J. E. Herr,  
 A. Heyden,  S. Hirata,  E. G. Hohenstein,  G. Kedziora,  F. J. Keil,  
 C. Kelley,  Jihan Kim,  R. A. King,  R. Z. Khaliullin,  P. P. Korambath,  
 W. Kurlancheek,  A. Laurent,  A. M. Lee,  M. S. Lee,  S. V. Levchenko,  
 Ching Yeh Lin,  D. Liotard,  E. Livshits,  R. C. Lochan,  I. Lotan,  
 L. A. Martinez-Martinez,  P. E. Maslen,  N. Nair,  D. P. O'Neill,  
 D. Neuhauser,  E. Neuscamman,  C. M. Oana,  R. Olivares-Amaya,  R. Olson,  
 T. M. Perrine,  B. Peters,  P. A. Pieniazek,  A. Prociuk,  Y. M. Rhee,  
 J. Ritchie,  M. A. Rohrdanz,  E. Rosta,  N. J. Russ,  H. F. Schaefer III,  
 M. W. Schmidt,  N. E. Schultz,  S. Sharma,  N. Shenvi,  C. D. Sherrill,  
 A. C. Simmonett,  A. Sodt,  T. Stein,  D. Stuck,  K. S. Thanthiriwatte,  
 V. Vanovschi,  L. Vogt,  Tao Wang,  A. Warshel,  M. A. Watson,  
 C. F. Williams,  Q. Wu,  X. Xu,  Jun Yang,  W. Zhang,  Yan Zhao

   Please cite Q-Chem as follows:
  "Software for the frontiers of quantum chemistry:
   An overview of developments in the Q-Chem 5 package"
   J. Chem. Phys. 155, 084801 (2021)
   https://doi.org/10.1063/5.0055522 (open access)

 Q-Chem 6.0.2 for Intel X86 EM64T Linux

 Parts of Q-Chem use Armadillo 9.900.5 (Nocturnal Misbehaviour).
 http://arma.sourceforge.net/

 Q-Chem begins on Tue Dec 19 08:07:33 2023  

 Host: 
0

     Scratch files written to /data/scratch/C_FePB_ctL2_3sextet_b3lypD3bj_ccpVDZ_pcmH2O_opt_220231219080731//
 Dec722 |scratch|qcdevops|jenkins|workspace|build_RNUM 8907   
 Processing $rem in /opt/qchem/6.0.1/config/preferences:
 Processing $rem in /home/sgardner/.qchemrc:
 Symmetry turned off for PCM/SM12/SMD calculation

 Checking the input file for inconsistencies... 	...done.

--------------------------------------------------------------
User input:
--------------------------------------------------------------
$molecule
-3 6
C    3.0219903   -1.7974248   -0.4458775
C    4.2980315   -2.3301432   -0.2521760
C    5.3028285   -2.2007572   -1.2441337
C    4.9839116   -1.5997763   -2.4693230
C    3.7187674   -1.0364303   -2.6771605
C    2.7504763   -1.0613702   -1.6585773
H    4.5014027   -2.8365989    0.6955955
O    1.5924378   -0.4366545   -1.7178932
C    6.7444064   -2.4178218   -0.9640780
O    7.6004310   -2.5276999   -1.8578136
N    7.0949662   -2.3880255    0.3652390
H    6.3534420   -2.1093080    0.9995280
C    8.4294550   -1.9829210    0.7905471
H    8.7529399   -2.6099362    1.6377759
H    9.1087978   -2.1789332   -0.0507094
C    8.4591842   -0.5010757    1.1956638
H    9.4567878   -0.2756240    1.6094879
H    7.7452866   -0.3507990    2.0252747
C    8.1207857    0.4927064    0.0479992
H    7.8552582   -0.0683231   -0.8617049
H    9.0289476    1.0660757   -0.2019434
N    7.0461822    1.4589696    0.2941665
H    7.2380445    1.9493035    1.1719060
C    4.6424430    1.9586078    0.6099770
H    3.6682265    1.4724693    0.7803204
H    4.8901682    2.4815927    1.5524769
C    5.7021099    0.8805665    0.3672853
H    5.6070496    0.1065743    1.1586475
H    5.5053650    0.3582147   -0.5834235
C    4.5156619    2.9846271   -0.5258957
H    4.1686359    3.9514564   -0.1328739
H    5.5134542    3.1565576   -0.9633326
C    3.5530656    2.5726793   -1.6498913
H    3.8094424    1.5739621   -2.0281140
H    3.6513416    3.2859312   -2.4858647
N    2.1538924    2.5207436   -1.2314333
H    1.6779830    1.6159659   -1.2202850
C    1.4720429    3.6359306   -0.8888426
O    1.9698202    4.7710340   -0.9707942
C    0.0401574    3.4582005   -0.4015287
H   -0.6265191    3.4639762   -1.2800016
H   -0.1864460    4.3536550    0.1921447
C   -1.5826569    2.3372399    1.2015734
H   -1.7644495    1.3842628    1.7224748
H   -1.4773233    3.1376089    1.9445396
C   -2.7697229    2.6591120    0.3066512
O   -3.4215064    3.7071822    0.4130759
N   -3.0301809    1.6973462   -0.6185093
C   -3.8536750    1.9603173   -1.7956137
H   -2.2313276    1.0594321   -0.7357174
C   -5.2694509    1.3774752   -1.7426288
H   -3.3219934    1.5362092   -2.6624248
H   -3.9138419    3.0521820   -1.9373203
C   -6.1780551    2.0107732   -0.6856479
H   -5.7230899    1.5402855   -2.7388547
H   -5.2170597    0.2854662   -1.6014447
C   -7.6612661    1.6510288   -0.8774618
H   -6.0824795    3.1095859   -0.7406227
H   -5.8387340    1.7266440    0.3261380
H   -8.2759970    2.2627461   -0.1939183
H   -7.9532153    1.9432022   -1.9037065
C   -5.7820164   -2.3614973   -0.4193223
C   -4.4359874   -2.1728709    0.1716570
O   -6.0410074   -2.0352875   -1.5961629
C   -4.2569380   -1.9693704    1.5496219
C   -3.3185103   -2.0695860   -0.6945310
C   -2.9907194   -1.6616108    2.0649607
C   -2.0448705   -1.7786908   -0.2026689
C   -1.8769235   -1.5466663    1.2154206
H   -2.8581047   -1.4699795    3.1336998
O   -0.9537007   -1.6590290   -0.9473361
C   -0.2588559    2.1649046    0.3940854
O   -0.3678033    1.0820949   -0.4793537
C    0.8743728    1.9159567    1.4284359
O    1.3930033    0.7377641    1.3954519
O    1.2096600    2.8273786    2.2043336
H    3.4883119   -0.5101611   -3.6079133
O    2.0333509   -1.8704635    0.4342009
H   -3.4640848   -2.2025751   -1.7688346
O   -0.6706692   -1.2059223    1.6180039
Fe    0.4960852   -0.6164848    0.0332847
N   -8.0520406    0.2529226   -0.6822567
H   -7.4510466   -0.3515974   -1.2489331
N   -6.7440593   -2.9024917    0.3880601
H   -6.4772897   -3.1163039    1.3426402
C   -8.1637622   -2.6963433    0.1399837
H   -8.2795908   -2.5339440   -0.9394393
H   -8.7145002   -3.6141822    0.3989140
C   -8.7278034   -1.5078430    0.9328982
H   -9.7868407   -1.3770073    0.6493376
H   -8.7048607   -1.7496119    2.0102018
C   -7.9792591   -0.1906930    0.7108654
H   -8.4534990    0.5866793    1.3340271
H   -6.9391906   -0.2944984    1.0845641
H    5.7653748   -1.5060082   -3.2248438
H   -5.1093293   -1.9921364    2.2317973
$end

$rem
BASIS  =  gen
DFT_D  =  D3_BJ
GUI  =  2
JOB_TYPE  =  Optimization
METHOD  =  B3LYP
SCF_CONVERGENCE  =  8
SOLVENT_METHOD  =  PCM
$end

$pcm
THEORY  CPCM
$end

$solvent
DIELECTRIC  78.39
$end

$van_der_waals
26   2.44
$end

!----------------------------------------------------------------------
! Basis Set Exchange
! Basis set: cc-pVDZ
!----------------------------------------------------------------------

$rem
BASIS GEN
PURECART 11
$end

$basis
H     0
S   4   1.00
1.301000D+01           1.968500D-02
1.962000D+00           1.379770D-01
4.446000D-01           4.781480D-01
1.220000D-01           5.012400D-01
S   1   1.00
1.220000D-01           1.000000D+00
P   1   1.00
7.270000D-01           1.0000000
****
C     0
S   9   1.00
6.665000D+03           6.920000D-04
1.000000D+03           5.329000D-03
2.280000D+02           2.707700D-02
6.471000D+01           1.017180D-01
2.106000D+01           2.747400D-01
7.495000D+00           4.485640D-01
2.797000D+00           2.850740D-01
5.215000D-01           1.520400D-02
1.596000D-01          -3.191000D-03
S   9   1.00
6.665000D+03          -1.460000D-04
1.000000D+03          -1.154000D-03
2.280000D+02          -5.725000D-03
6.471000D+01          -2.331200D-02
2.106000D+01          -6.395500D-02
7.495000D+00          -1.499810D-01
2.797000D+00          -1.272620D-01
5.215000D-01           5.445290D-01
1.596000D-01           5.804960D-01
S   1   1.00
1.596000D-01           1.000000D+00
P   4   1.00
9.439000D+00           3.810900D-02
2.002000D+00           2.094800D-01
5.456000D-01           5.085570D-01
1.517000D-01           4.688420D-01
P   1   1.00
1.517000D-01           1.000000D+00
D   1   1.00
5.500000D-01           1.0000000
****
N     0
S   9   1.00
9.046000D+03           7.000000D-04
1.357000D+03           5.389000D-03
3.093000D+02           2.740600D-02
8.773000D+01           1.032070D-01
2.856000D+01           2.787230D-01
1.021000D+01           4.485400D-01
3.838000D+00           2.782380D-01
7.466000D-01           1.544000D-02
2.248000D-01          -2.864000D-03
S   9   1.00
9.046000D+03          -1.530000D-04
1.357000D+03          -1.208000D-03
3.093000D+02          -5.992000D-03
8.773000D+01          -2.454400D-02
2.856000D+01          -6.745900D-02
1.021000D+01          -1.580780D-01
3.838000D+00          -1.218310D-01
7.466000D-01           5.490030D-01
2.248000D-01           5.788150D-01
S   1   1.00
2.248000D-01           1.000000D+00
P   4   1.00
1.355000D+01           3.991900D-02
2.917000D+00           2.171690D-01
7.973000D-01           5.103190D-01
2.185000D-01           4.622140D-01
P   1   1.00
2.185000D-01           1.000000D+00
D   1   1.00
8.170000D-01           1.0000000
****
O     0
S   9   1.00
1.172000D+04           7.100000D-04
1.759000D+03           5.470000D-03
4.008000D+02           2.783700D-02
1.137000D+02           1.048000D-01
3.703000D+01           2.830620D-01
1.327000D+01           4.487190D-01
5.025000D+00           2.709520D-01
1.013000D+00           1.545800D-02
3.023000D-01          -2.585000D-03
S   9   1.00
1.172000D+04          -1.600000D-04
1.759000D+03          -1.263000D-03
4.008000D+02          -6.267000D-03
1.137000D+02          -2.571600D-02
3.703000D+01          -7.092400D-02
1.327000D+01          -1.654110D-01
5.025000D+00          -1.169550D-01
1.013000D+00           5.573680D-01
3.023000D-01           5.727590D-01
S   1   1.00
3.023000D-01           1.000000D+00
P   4   1.00
1.770000D+01           4.301800D-02
3.854000D+00           2.289130D-01
1.046000D+00           5.087280D-01
2.753000D-01           4.605310D-01
P   1   1.00
2.753000D-01           1.000000D+00
D   1   1.00
1.185000D+00           1.0000000
****
Fe     0
S   20   1.00
4.316265D+06           8.048803D-06
6.463424D+05           6.258306D-05
1.470897D+05           3.290239D-04
4.166152D+04           1.387355D-03
1.359077D+04           5.023256D-03
4.905750D+03           1.610140D-02
1.912746D+03           4.590034D-02
7.926043D+02           1.136154D-01
3.448065D+02           2.283869D-01
1.558999D+02           3.221159D-01
7.223091D+01           2.383661D-01
3.272506D+01           7.404667D-02
1.566762D+01           9.214197D-02
7.503483D+00           9.339790D-02
3.312223D+00           1.573965D-02
1.558471D+00          -4.186682D-04
6.839140D-01           5.376318D-05
1.467570D-01          -3.816654D-05
7.058300D-02           4.319603D-05
3.144900D-02          -3.401019D-06
S   20   1.00
4.316265D+06          -4.155954D-06
6.463424D+05          -3.231401D-05
1.470897D+05          -1.699525D-04
4.166152D+04          -7.171369D-04
1.359077D+04          -2.603625D-03
4.905750D+03          -8.399109D-03
1.912746D+03          -2.434109D-02
7.926043D+02          -6.251948D-02
3.448065D+02          -1.365929D-01
1.558999D+02          -2.312707D-01
7.223091D+01          -2.383734D-01
3.272506D+01           3.123837D-02
1.566762D+01           5.086818D-01
7.503483D+00           4.987695D-01
3.312223D+00           9.033552D-02
1.558471D+00          -6.005337D-03
6.839140D-01           2.312454D-04
1.467570D-01          -5.643680D-04
7.058300D-02           4.992260D-04
3.144900D-02          -1.015293D-04
S   20   1.00
4.316265D+06           9.532178D-07
6.463424D+05           7.414605D-06
1.470897D+05           3.898393D-05
4.166152D+04           1.647152D-04
1.359077D+04           5.985980D-04
4.905750D+03           1.942390D-03
1.912746D+03           5.687237D-03
7.926043D+02           1.501329D-02
3.448065D+02           3.452455D-02
1.558999D+02           6.495820D-02
7.223091D+01           7.716194D-02
3.272506D+01          -1.873411D-02
1.566762D+01          -3.009185D-01
7.503483D+00          -4.554661D-01
3.312223D+00           1.286463D-01
1.558471D+00           7.183316D-01
6.839140D-01           4.051743D-01
1.467570D-01           2.168227D-02
7.058300D-02          -8.343566D-03
3.144900D-02           3.658979D-03
S   20   1.00
4.316265D+06          -2.063008D-07
6.463424D+05          -1.604169D-06
1.470897D+05          -8.438437D-06
4.166152D+04          -3.563151D-05
1.359077D+04          -1.295998D-04
4.905750D+03          -4.201534D-04
1.912746D+03          -1.231954D-03
7.926043D+02          -3.248922D-03
3.448065D+02          -7.493717D-03
1.558999D+02          -1.410102D-02
7.223091D+01          -1.691600D-02
3.272506D+01           4.218996D-03
1.566762D+01           6.833810D-02
7.503483D+00           1.098201D-01
3.312223D+00          -4.009005D-02
1.558471D+00          -2.174739D-01
6.839140D-01          -2.465135D-01
1.467570D-01           2.731435D-01
7.058300D-02           5.748321D-01
3.144900D-02           3.012713D-01
S   20   1.00
4.316265D+06          -4.009367D-07
6.463424D+05          -3.189255D-06
1.470897D+05          -1.623079D-05
4.166152D+04          -7.157920D-05
1.359077D+04          -2.463958D-04
4.905750D+03          -8.544907D-04
1.912746D+03          -2.307593D-03
7.926043D+02          -6.728292D-03
3.448065D+02          -1.366165D-02
1.558999D+02          -3.062240D-02
7.223091D+01          -2.631137D-02
3.272506D+01          -9.760183D-03
1.566762D+01           1.801906D-01
7.503483D+00           1.529634D-01
3.312223D+00           5.505413D-02
1.558471D+00          -9.551364D-01
6.839140D-01           2.586813D-01
1.467570D-01           1.834049D+00
7.058300D-02          -9.333240D-01
3.144900D-02          -6.981605D-01
S   1   1.00
3.144900D-02           1.000000D+00
P   16   1.00
1.774569D+04           4.100000D-05
4.200721D+03           3.690000D-04
1.364429D+03           2.129000D-03
5.220806D+02           9.369000D-03
2.214595D+02           3.309700D-02
1.009096D+02           9.443100D-02
4.840115D+01           2.080770D-01
2.398536D+01           3.323330D-01
1.218250D+01           3.329870D-01
6.242298D+00           1.568430D-01
3.110944D+00           2.154900D-02
1.509958D+00          -2.095000D-03
7.108450D-01          -1.739000D-03
2.731900D-01          -3.000000D-04
1.042330D-01           2.900000D-05
3.829100D-02          -1.100000D-05
P   16   1.00
1.774569D+04          -1.500000D-05
4.200721D+03          -1.300000D-04
1.364429D+03          -7.510000D-04
5.220806D+02          -3.329000D-03
2.214595D+02          -1.191200D-02
1.009096D+02          -3.493300D-02
4.840115D+01          -7.998900D-02
2.398536D+01          -1.346360D-01
1.218250D+01          -1.385980D-01
6.242298D+00           3.027800D-02
3.110944D+00           3.332160D-01
1.509958D+00           4.561530D-01
7.108450D-01           2.850510D-01
2.731900D-01           4.614400D-02
1.042330D-01          -3.249000D-03
3.829100D-02           1.357000D-03
P   16   1.00
1.774569D+04           5.000000D-06
4.200721D+03           4.200000D-05
1.364429D+03           2.410000D-04
5.220806D+02           1.085000D-03
2.214595D+02           3.831000D-03
1.009096D+02           1.142300D-02
4.840115D+01           2.579200D-02
2.398536D+01           4.481800D-02
1.218250D+01           4.459800D-02
6.242298D+00          -1.117700D-02
3.110944D+00          -1.381340D-01
1.509958D+00          -1.882850D-01
7.108450D-01          -1.073990D-01
2.731900D-01           4.448630D-01
1.042330D-01           6.402390D-01
3.829100D-02           6.445700D-02
P   16   1.00
1.774569D+04           3.000000D-06
4.200721D+03           2.900000D-05
1.364429D+03           1.650000D-04
5.220806D+02           7.340000D-04
2.214595D+02           2.626000D-03
1.009096D+02           7.725000D-03
4.840115D+01           1.773300D-02
2.398536D+01           3.005500D-02
1.218250D+01           3.109400D-02
6.242298D+00          -1.004800D-02
3.110944D+00          -8.830600D-02
1.509958D+00          -1.298240D-01
7.108450D-01          -7.693700D-02
2.731900D-01           2.126610D-01
1.042330D-01           5.730610D-01
3.829100D-02           3.696510D-01
P   1   1.00
3.829100D-02           1.000000D+00
D   8   1.00
1.133440D+02           3.530000D-03
3.364140D+01           2.578400D-02
1.233100D+01           9.911900D-02
4.994780D+00           2.390730D-01
2.072800D+00           3.571990D-01
8.307530D-01           3.621880D-01
3.091780D-01           2.364610D-01
1.001300D-01           6.011800D-02
D   8   1.00
1.133440D+02          -3.890000D-03
3.364140D+01          -2.844200D-02
1.233100D+01          -1.124290D-01
4.994780D+00          -2.742570D-01
2.072800D+00          -3.155460D-01
8.307530D-01           5.710900D-02
3.091780D-01           5.636040D-01
1.001300D-01           3.846370D-01
D   1   1.00
1.001300D-01           1.000000D+00
F   2   1.00
3.224300D+00           4.222490D-01
7.758000D-01           7.714680D-01
****
$end


--------------------------------------------------------------
 Adding empirical dispersion correction 
 ----------------------------------------------------------------
 Doing -D3(BJ) with
 s6  =   1.00000
 s8  =   1.98890
 a1  =   0.39810
 a2  =   4.42110
 -D3 energy without 3body term =     -0.2457883750 hartrees
 ----------------------------------------------------------------
             Standard Nuclear Orientation (Angstroms)
    I     Atom           X                Y                Z
 ----------------------------------------------------------------
    1      C       3.0219903000    -1.7974248000    -0.4458775000
    2      C       4.2980315000    -2.3301432000    -0.2521760000
    3      C       5.3028285000    -2.2007572000    -1.2441337000
    4      C       4.9839116000    -1.5997763000    -2.4693230000
    5      C       3.7187674000    -1.0364303000    -2.6771605000
    6      C       2.7504763000    -1.0613702000    -1.6585773000
    7      H       4.5014027000    -2.8365989000     0.6955955000
    8      O       1.5924378000    -0.4366545000    -1.7178932000
    9      C       6.7444064000    -2.4178218000    -0.9640780000
   10      O       7.6004310000    -2.5276999000    -1.8578136000
   11      N       7.0949662000    -2.3880255000     0.3652390000
   12      H       6.3534420000    -2.1093080000     0.9995280000
   13      C       8.4294550000    -1.9829210000     0.7905471000
   14      H       8.7529399000    -2.6099362000     1.6377759000
   15      H       9.1087978000    -2.1789332000    -0.0507094000
   16      C       8.4591842000    -0.5010757000     1.1956638000
   17      H       9.4567878000    -0.2756240000     1.6094879000
   18      H       7.7452866000    -0.3507990000     2.0252747000
   19      C       8.1207857000     0.4927064000     0.0479992000
   20      H       7.8552582000    -0.0683231000    -0.8617049000
   21      H       9.0289476000     1.0660757000    -0.2019434000
   22      N       7.0461822000     1.4589696000     0.2941665000
   23      H       7.2380445000     1.9493035000     1.1719060000
   24      C       4.6424430000     1.9586078000     0.6099770000
   25      H       3.6682265000     1.4724693000     0.7803204000
   26      H       4.8901682000     2.4815927000     1.5524769000
   27      C       5.7021099000     0.8805665000     0.3672853000
   28      H       5.6070496000     0.1065743000     1.1586475000
   29      H       5.5053650000     0.3582147000    -0.5834235000
   30      C       4.5156619000     2.9846271000    -0.5258957000
   31      H       4.1686359000     3.9514564000    -0.1328739000
   32      H       5.5134542000     3.1565576000    -0.9633326000
   33      C       3.5530656000     2.5726793000    -1.6498913000
   34      H       3.8094424000     1.5739621000    -2.0281140000
   35      H       3.6513416000     3.2859312000    -2.4858647000
   36      N       2.1538924000     2.5207436000    -1.2314333000
   37      H       1.6779830000     1.6159659000    -1.2202850000
   38      C       1.4720429000     3.6359306000    -0.8888426000
   39      O       1.9698202000     4.7710340000    -0.9707942000
   40      C       0.0401574000     3.4582005000    -0.4015287000
   41      H      -0.6265191000     3.4639762000    -1.2800016000
   42      H      -0.1864460000     4.3536550000     0.1921447000
   43      C      -1.5826569000     2.3372399000     1.2015734000
   44      H      -1.7644495000     1.3842628000     1.7224748000
   45      H      -1.4773233000     3.1376089000     1.9445396000
   46      C      -2.7697229000     2.6591120000     0.3066512000
   47      O      -3.4215064000     3.7071822000     0.4130759000
   48      N      -3.0301809000     1.6973462000    -0.6185093000
   49      C      -3.8536750000     1.9603173000    -1.7956137000
   50      H      -2.2313276000     1.0594321000    -0.7357174000
   51      C      -5.2694509000     1.3774752000    -1.7426288000
   52      H      -3.3219934000     1.5362092000    -2.6624248000
   53      H      -3.9138419000     3.0521820000    -1.9373203000
   54      C      -6.1780551000     2.0107732000    -0.6856479000
   55      H      -5.7230899000     1.5402855000    -2.7388547000
   56      H      -5.2170597000     0.2854662000    -1.6014447000
   57      C      -7.6612661000     1.6510288000    -0.8774618000
   58      H      -6.0824795000     3.1095859000    -0.7406227000
   59      H      -5.8387340000     1.7266440000     0.3261380000
   60      H      -8.2759970000     2.2627461000    -0.1939183000
   61      H      -7.9532153000     1.9432022000    -1.9037065000
   62      C      -5.7820164000    -2.3614973000    -0.4193223000
   63      C      -4.4359874000    -2.1728709000     0.1716570000
   64      O      -6.0410074000    -2.0352875000    -1.5961629000
   65      C      -4.2569380000    -1.9693704000     1.5496219000
   66      C      -3.3185103000    -2.0695860000    -0.6945310000
   67      C      -2.9907194000    -1.6616108000     2.0649607000
   68      C      -2.0448705000    -1.7786908000    -0.2026689000
   69      C      -1.8769235000    -1.5466663000     1.2154206000
   70      H      -2.8581047000    -1.4699795000     3.1336998000
   71      O      -0.9537007000    -1.6590290000    -0.9473361000
   72      C      -0.2588559000     2.1649046000     0.3940854000
   73      O      -0.3678033000     1.0820949000    -0.4793537000
   74      C       0.8743728000     1.9159567000     1.4284359000
   75      O       1.3930033000     0.7377641000     1.3954519000
   76      O       1.2096600000     2.8273786000     2.2043336000
   77      H       3.4883119000    -0.5101611000    -3.6079133000
   78      O       2.0333509000    -1.8704635000     0.4342009000
   79      H      -3.4640848000    -2.2025751000    -1.7688346000
   80      O      -0.6706692000    -1.2059223000     1.6180039000
   81      Fe      0.4960852000    -0.6164848000     0.0332847000
   82      N      -8.0520406000     0.2529226000    -0.6822567000
   83      H      -7.4510466000    -0.3515974000    -1.2489331000
   84      N      -6.7440593000    -2.9024917000     0.3880601000
   85      H      -6.4772897000    -3.1163039000     1.3426402000
   86      C      -8.1637622000    -2.6963433000     0.1399837000
   87      H      -8.2795908000    -2.5339440000    -0.9394393000
   88      H      -8.7145002000    -3.6141822000     0.3989140000
   89      C      -8.7278034000    -1.5078430000     0.9328982000
   90      H      -9.7868407000    -1.3770073000     0.6493376000
   91      H      -8.7048607000    -1.7496119000     2.0102018000
   92      C      -7.9792591000    -0.1906930000     0.7108654000
   93      H      -8.4534990000     0.5866793000     1.3340271000
   94      H      -6.9391906000    -0.2944984000     1.0845641000
   95      H       5.7653748000    -1.5060082000    -3.2248438000
   96      H      -5.1093293000    -1.9921364000     2.2317973000
 ----------------------------------------------------------------
 Nuclear Repulsion Energy =        8371.54984661 hartrees
 There are      206 alpha and      201 beta electrons
 Requested basis set is non-standard
 There are 453 shells and 977 basis functions

 Total QAlloc Memory Limit   8000 MB
 Mega-Array Size       188 MB
 MEM_STATIC part       192 MB

 -----------------------------------------------------------------------
                STARTING GEOMETRY OPTIMIZER USING LIBOPT3
                by Peter F. McLaughlin, Yu Zhang, Evgeny Epifanovsky
 -----------------------------------------------------------------------

              Initial Energy and Gradient Calculation
   -- Checking Topology for Ill-Behaving Coordinates --

 -------------------------------------------
   Coordinate       |  Removed | Additions 
 -------------------------------------------
	Bonds                     0          0
	Angles                    1          0
	Torsions                  2          2
	Co-Linear Type5s          0          2
	Co-Linear Type6s          0          2
 -------------------------------------------

 ** Ill-Behaving Topology Definitions (No action needed.) **

  Ill-Defined Angles Removed: 
   8  81  80

  Ill-Defined Torsions Removed: 
   6   8  81  80,  69  80  81   8

     Done Checking Topology
 Adding empirical dispersion correction 
 ----------------------------------------------------------------
 Doing -D3(BJ) with
 s6  =   1.00000
 s8  =   1.98890
 a1  =   0.39810
 a2  =   4.42110
 -D3 energy without 3body term =     -0.2457883750 hartrees
 ----------------------------------------------------------------
             Standard Nuclear Orientation (Angstroms)
    I     Atom           X                Y                Z
 ----------------------------------------------------------------
    1      C       3.0219903000    -1.7974248000    -0.4458775000
    2      C       4.2980315000    -2.3301432000    -0.2521760000
    3      C       5.3028285000    -2.2007572000    -1.2441337000
    4      C       4.9839116000    -1.5997763000    -2.4693230000
    5      C       3.7187674000    -1.0364303000    -2.6771605000
    6      C       2.7504763000    -1.0613702000    -1.6585773000
    7      H       4.5014027000    -2.8365989000     0.6955955000
    8      O       1.5924378000    -0.4366545000    -1.7178932000
    9      C       6.7444064000    -2.4178218000    -0.9640780000
   10      O       7.6004310000    -2.5276999000    -1.8578136000
   11      N       7.0949662000    -2.3880255000     0.3652390000
   12      H       6.3534420000    -2.1093080000     0.9995280000
   13      C       8.4294550000    -1.9829210000     0.7905471000
   14      H       8.7529399000    -2.6099362000     1.6377759000
   15      H       9.1087978000    -2.1789332000    -0.0507094000
   16      C       8.4591842000    -0.5010757000     1.1956638000
   17      H       9.4567878000    -0.2756240000     1.6094879000
   18      H       7.7452866000    -0.3507990000     2.0252747000
   19      C       8.1207857000     0.4927064000     0.0479992000
   20      H       7.8552582000    -0.0683231000    -0.8617049000
   21      H       9.0289476000     1.0660757000    -0.2019434000
   22      N       7.0461822000     1.4589696000     0.2941665000
   23      H       7.2380445000     1.9493035000     1.1719060000
   24      C       4.6424430000     1.9586078000     0.6099770000
   25      H       3.6682265000     1.4724693000     0.7803204000
   26      H       4.8901682000     2.4815927000     1.5524769000
   27      C       5.7021099000     0.8805665000     0.3672853000
   28      H       5.6070496000     0.1065743000     1.1586475000
   29      H       5.5053650000     0.3582147000    -0.5834235000
   30      C       4.5156619000     2.9846271000    -0.5258957000
   31      H       4.1686359000     3.9514564000    -0.1328739000
   32      H       5.5134542000     3.1565576000    -0.9633326000
   33      C       3.5530656000     2.5726793000    -1.6498913000
   34      H       3.8094424000     1.5739621000    -2.0281140000
   35      H       3.6513416000     3.2859312000    -2.4858647000
   36      N       2.1538924000     2.5207436000    -1.2314333000
   37      H       1.6779830000     1.6159659000    -1.2202850000
   38      C       1.4720429000     3.6359306000    -0.8888426000
   39      O       1.9698202000     4.7710340000    -0.9707942000
   40      C       0.0401574000     3.4582005000    -0.4015287000
   41      H      -0.6265191000     3.4639762000    -1.2800016000
   42      H      -0.1864460000     4.3536550000     0.1921447000
   43      C      -1.5826569000     2.3372399000     1.2015734000
   44      H      -1.7644495000     1.3842628000     1.7224748000
   45      H      -1.4773233000     3.1376089000     1.9445396000
   46      C      -2.7697229000     2.6591120000     0.3066512000
   47      O      -3.4215064000     3.7071822000     0.4130759000
   48      N      -3.0301809000     1.6973462000    -0.6185093000
   49      C      -3.8536750000     1.9603173000    -1.7956137000
   50      H      -2.2313276000     1.0594321000    -0.7357174000
   51      C      -5.2694509000     1.3774752000    -1.7426288000
   52      H      -3.3219934000     1.5362092000    -2.6624248000
   53      H      -3.9138419000     3.0521820000    -1.9373203000
   54      C      -6.1780551000     2.0107732000    -0.6856479000
   55      H      -5.7230899000     1.5402855000    -2.7388547000
   56      H      -5.2170597000     0.2854662000    -1.6014447000
   57      C      -7.6612661000     1.6510288000    -0.8774618000
   58      H      -6.0824795000     3.1095859000    -0.7406227000
   59      H      -5.8387340000     1.7266440000     0.3261380000
   60      H      -8.2759970000     2.2627461000    -0.1939183000
   61      H      -7.9532153000     1.9432022000    -1.9037065000
   62      C      -5.7820164000    -2.3614973000    -0.4193223000
   63      C      -4.4359874000    -2.1728709000     0.1716570000
   64      O      -6.0410074000    -2.0352875000    -1.5961629000
   65      C      -4.2569380000    -1.9693704000     1.5496219000
   66      C      -3.3185103000    -2.0695860000    -0.6945310000
   67      C      -2.9907194000    -1.6616108000     2.0649607000
   68      C      -2.0448705000    -1.7786908000    -0.2026689000
   69      C      -1.8769235000    -1.5466663000     1.2154206000
   70      H      -2.8581047000    -1.4699795000     3.1336998000
   71      O      -0.9537007000    -1.6590290000    -0.9473361000
   72      C      -0.2588559000     2.1649046000     0.3940854000
   73      O      -0.3678033000     1.0820949000    -0.4793537000
   74      C       0.8743728000     1.9159567000     1.4284359000
   75      O       1.3930033000     0.7377641000     1.3954519000
   76      O       1.2096600000     2.8273786000     2.2043336000
   77      H       3.4883119000    -0.5101611000    -3.6079133000
   78      O       2.0333509000    -1.8704635000     0.4342009000
   79      H      -3.4640848000    -2.2025751000    -1.7688346000
   80      O      -0.6706692000    -1.2059223000     1.6180039000
   81      Fe      0.4960852000    -0.6164848000     0.0332847000
   82      N      -8.0520406000     0.2529226000    -0.6822567000
   83      H      -7.4510466000    -0.3515974000    -1.2489331000
   84      N      -6.7440593000    -2.9024917000     0.3880601000
   85      H      -6.4772897000    -3.1163039000     1.3426402000
   86      C      -8.1637622000    -2.6963433000     0.1399837000
   87      H      -8.2795908000    -2.5339440000    -0.9394393000
   88      H      -8.7145002000    -3.6141822000     0.3989140000
   89      C      -8.7278034000    -1.5078430000     0.9328982000
   90      H      -9.7868407000    -1.3770073000     0.6493376000
   91      H      -8.7048607000    -1.7496119000     2.0102018000
   92      C      -7.9792591000    -0.1906930000     0.7108654000
   93      H      -8.4534990000     0.5866793000     1.3340271000
   94      H      -6.9391906000    -0.2944984000     1.0845641000
   95      H       5.7653748000    -1.5060082000    -3.2248438000
   96      H      -5.1093293000    -1.9921364000     2.2317973000
 ----------------------------------------------------------------
 Nuclear Repulsion Energy =        8371.54984661 hartrees
 There are      206 alpha and      201 beta electrons
 Using C-PCM dielectric factor f(eps) = (eps-1)/eps = 0.987243
No default van der Waals radius is available for Z = 26
	Found R = 2.4400 A in the $van_der_waals section
 Discretize the solute cavity surface with Lebedev spheres
	Using 110 Lebedev grid points for each H atom
	Using 194 Lebedev grid points for other atoms
	Atomic van der Waals radii (Bondi set) will be scaled by 1.20
 Using smooth SwiG surface discretization
 Remove points where switching function is < 1.0e-08
 Keep 5524 surface tesserae and discard 9404 interior tesserae
 Molecular Surface Area = 675.899 Angst**2

 Requested basis set is non-standard
 There are 453 shells and 977 basis functions
 A cutoff of  1.0D-12 yielded  63992 shell pairs
 There are    275888 function pairs (    305109 Cartesian)
 Smallest overlap matrix eigenvalue = 1.92E-04

 Scale SEOQF with 1.000000e-02/1.000000e-01/1.000000e-01

 Standard Electronic Orientation quadrupole field applied
 Nucleus-field energy     =     0.0000000985 hartrees
 ================ Generating on-the-fly SAD Guess ================
 Attempting to make child job directory: /data/scratch/C_FePB_ctL2_3sextet_b3lypD3bj_ccpVDZ_pcmH2O_opt_220231219080731//Frg1/
 Attempting to make child job directory: /data/scratch/C_FePB_ctL2_3sextet_b3lypD3bj_ccpVDZ_pcmH2O_opt_220231219080731//Frg2/
 Attempting to make child job directory: /data/scratch/C_FePB_ctL2_3sextet_b3lypD3bj_ccpVDZ_pcmH2O_opt_220231219080731//Frg3/
 Attempting to make child job directory: /data/scratch/C_FePB_ctL2_3sextet_b3lypD3bj_ccpVDZ_pcmH2O_opt_220231219080731//Frg4/
 Attempting to make child job directory: /data/scratch/C_FePB_ctL2_3sextet_b3lypD3bj_ccpVDZ_pcmH2O_opt_220231219080731//Frg5/
 Creating input file /data/scratch/C_FePB_ctL2_3sextet_b3lypD3bj_ccpVDZ_pcmH2O_opt_220231219080731/Frg1.input
 using default PutDataFrgm: nothing
 calling putenv with: QCSCRATCH=/data/scratch/C_FePB_ctL2_3sextet_b3lypD3bj_ccpVDZ_pcmH2O_opt_220231219080731/ 
 Spawning Job For Fragment 0
 Done Job For Fragment 0
 calling putenv with: QCSCRATCH=/data/scratch 
 calling putenv with: QCTHREADS=20 
 Creating input file /data/scratch/C_FePB_ctL2_3sextet_b3lypD3bj_ccpVDZ_pcmH2O_opt_220231219080731/Frg2.input
 using default PutDataFrgm: nothing
 calling putenv with: QCSCRATCH=/data/scratch/C_FePB_ctL2_3sextet_b3lypD3bj_ccpVDZ_pcmH2O_opt_220231219080731/ 
 Spawning Job For Fragment 1
 Done Job For Fragment 1
 calling putenv with: QCSCRATCH=/data/scratch 
 calling putenv with: QCTHREADS=20 
 Creating input file /data/scratch/C_FePB_ctL2_3sextet_b3lypD3bj_ccpVDZ_pcmH2O_opt_220231219080731/Frg3.input
 using default PutDataFrgm: nothing
 calling putenv with: QCSCRATCH=/data/scratch/C_FePB_ctL2_3sextet_b3lypD3bj_ccpVDZ_pcmH2O_opt_220231219080731/ 
 Spawning Job For Fragment 2
 Done Job For Fragment 2
 calling putenv with: QCSCRATCH=/data/scratch 
 calling putenv with: QCTHREADS=20 
 Creating input file /data/scratch/C_FePB_ctL2_3sextet_b3lypD3bj_ccpVDZ_pcmH2O_opt_220231219080731/Frg4.input
 using default PutDataFrgm: nothing
 calling putenv with: QCSCRATCH=/data/scratch/C_FePB_ctL2_3sextet_b3lypD3bj_ccpVDZ_pcmH2O_opt_220231219080731/ 
 Spawning Job For Fragment 3
 Done Job For Fragment 3
 calling putenv with: QCSCRATCH=/data/scratch 
 calling putenv with: QCTHREADS=20 
 Creating input file /data/scratch/C_FePB_ctL2_3sextet_b3lypD3bj_ccpVDZ_pcmH2O_opt_220231219080731/Frg5.input
 using default PutDataFrgm: nothing
 calling putenv with: QCSCRATCH=/data/scratch/C_FePB_ctL2_3sextet_b3lypD3bj_ccpVDZ_pcmH2O_opt_220231219080731/ 
 Spawning Job For Fragment 4
 Done Job For Fragment 4
 calling putenv with: QCSCRATCH=/data/scratch 
 calling putenv with: QCTHREADS=20 
 Time for running child jobs:  CPU 0.03 s  wall 57.79 s
 ============= Method Specific SAD Guess Constructed =============
 Guess from on-the-fly superposition of atomic densities
 Warning: Energy on first SCF cycle will be non-variational

 -----------------------------------------------------------------------
  General SCF calculation program by
  Eric Jon Sundstrom, Paul Horn, Yuezhi Mao, Dmitri Zuev, Alec White,
  David Stuck, Shaama M.S., Shane Yost, Joonho Lee, David Small,
  Daniel Levine, Susi Lehtola, Hugh Burton, Evgeny Epifanovsky,
  Bang C. Huynh
 -----------------------------------------------------------------------
 Exchange:     0.2000 Hartree-Fock + 0.0800 Slater + 0.7200 B88
 Correlation:  0.1900 VWN1RPA + 0.8100 LYP
 Using SG-1 standard quadrature grid
 Dispersion:   Grimme D3
 using 20 threads for integral computing
 -------------------------------------------------------
 OpenMP Integral computing Module                
 Release: version 1.0, May 2013, Q-Chem Inc. Pittsburgh 
 -------------------------------------------------------
 C-PCM solvent model [f = (eps-1)/eps], solve by matrix inversion
 A unrestricted SCF calculation will be
 performed using DIIS
 SCF converges when DIIS error is below 1.0e-08
 ---------------------------------------
  Cycle       Energy         DIIS error
 ---------------------------------------
    1   -3762.7996781408      1.41e-02  
    2   -3741.5593424822      1.72e-03  
    3   -3736.5786276402      4.53e-03  
    4   -3735.6345246628      3.96e-03  
    5   -3742.7567026581      6.16e-04  
    6   -3742.8493550015      4.51e-04  
    7   -3742.9336218436      1.31e-04  
    8   -3742.9384411271      7.62e-05  
    9   -3742.9402880840      3.95e-05  
   10   -3742.9407832737      2.01e-05  
   11   -3742.9409534070      5.19e-06  
   12   -3742.9409636298      2.46e-06  
   13   -3742.9409661081      1.35e-06  
   14   -3742.9409670347      6.22e-07  
   15   -3742.9409672070      3.41e-07  
   16   -3742.9409672539      1.62e-07  
   17   -3742.9409672683      5.38e-08  
   18   -3742.9409672726      4.15e-08  
   19   -3742.9409672735      2.02e-08  
   20   -3742.9409672740      9.73e-09  Convergence criterion met
 ---------------------------------------
 SCF time:   CPU 52846.22s  wall 3611.00s 
<S^2> =          8.757575470

************** Final PCM Free Energy Summary **************
 G_electrostatic  =      -0.50495198 hartree =    -316.86214968 kcal/mol
 G_cavitation     =       0.00000000 hartree =       0.00000000 kcal/mol
 G_dispersion     =       0.00000000 hartree =       0.00000000 kcal/mol
 G_repulsion      =       0.00000000 hartree =       0.00000000 kcal/mol
 --------------------------------------------------
 Non-electrostatic Free Energy =       0.00000000 hartree =       0.00000000 kcal/mol
 Total                         =      -0.50495198 hartree =    -316.86214968 kcal/mol
 --------------------------------------------------
 SCF Energy (H0 + V/2)                       =   -3742.94096727 
 Solute Internal Energy (H0)                 =   -3742.43601529 
 Total Free Energy (H0 + V/2 + non-elec)     =   -3742.94096727 hartree
                                             = -2348730.90635834 kcal/mol
***********************************************************

 SCF   energy in the final basis set =    -3742.9409672740
 Total energy in the final basis set =    -3742.9409672740
 
 --------------------------------------------------------------
 
                    Orbital Energies (a.u.)
 --------------------------------------------------------------
 
 Alpha MOs
 -- Occupied --
******** -30.1088 -25.9626 -25.9601 -25.9588 -19.0956 -19.0925 -19.0917
-19.0917 -19.0911 -19.0887 -19.0871 -19.0867 -19.0841 -19.0753 -19.0710
-14.3375 -14.3332 -14.3257 -14.3210 -14.2997 -14.2956 -10.2728 -10.2707
-10.2652 -10.2650 -10.2573 -10.2166 -10.2080 -10.2078 -10.2075 -10.2075
-10.2041 -10.2020 -10.2020 -10.2001 -10.1949 -10.1939 -10.1933 -10.1861
-10.1753 -10.1738 -10.1707 -10.1698 -10.1694 -10.1687 -10.1668 -10.1659
-10.1655 -10.1650 -10.1628 -10.1621 -10.1595 -10.1580 -10.1579 -10.1567
 -3.5908  -2.3684  -2.3637  -2.3609  -1.0249  -1.0175  -1.0153  -1.0133
 -1.0107  -0.9916  -0.9875  -0.9515  -0.9502  -0.9485  -0.9319  -0.9089
 -0.9067  -0.8972  -0.8949  -0.8869  -0.8863  -0.8164  -0.8158  -0.7782
 -0.7747  -0.7607  -0.7548  -0.7483  -0.7222  -0.7172  -0.7137  -0.7030
 -0.6970  -0.6927  -0.6827  -0.6607  -0.6528  -0.6261  -0.6195  -0.6003
 -0.5953  -0.5939  -0.5828  -0.5759  -0.5729  -0.5722  -0.5686  -0.5569
 -0.5548  -0.5483  -0.5438  -0.5383  -0.5133  -0.5038  -0.5019  -0.4862
 -0.4817  -0.4784  -0.4727  -0.4686  -0.4678  -0.4661  -0.4601  -0.4585
 -0.4575  -0.4543  -0.4505  -0.4474  -0.4460  -0.4435  -0.4409  -0.4379
 -0.4338  -0.4277  -0.4263  -0.4207  -0.4202  -0.4159  -0.4119  -0.4105
 -0.4087  -0.4067  -0.4047  -0.4032  -0.4025  -0.3980  -0.3964  -0.3927
 -0.3919  -0.3889  -0.3855  -0.3846  -0.3817  -0.3805  -0.3786  -0.3742
 -0.3730  -0.3704  -0.3667  -0.3667  -0.3657  -0.3633  -0.3614  -0.3603
 -0.3574  -0.3554  -0.3508  -0.3467  -0.3439  -0.3421  -0.3389  -0.3353
 -0.3328  -0.3326  -0.3302  -0.3298  -0.3251  -0.3236  -0.3147  -0.3142
 -0.3120  -0.3108  -0.3085  -0.3056  -0.3037  -0.2940  -0.2878  -0.2730
 -0.2633  -0.2549  -0.2516  -0.2482  -0.2464  -0.2457  -0.2444  -0.2413
 -0.2387  -0.2361  -0.2354  -0.2332  -0.2298  -0.2150  -0.2133  -0.2101
 -0.2091  -0.2066  -0.2052  -0.1942  -0.1619  -0.1611
 -- Virtual --
 -0.0077  -0.0073   0.0273   0.0283   0.0302   0.0411   0.0492   0.0593
  0.0616   0.0652   0.0693   0.0782   0.0806   0.0837   0.0840   0.0855
  0.0873   0.0914   0.0940   0.0986   0.1045   0.1066   0.1091   0.1138
  0.1165   0.1187   0.1199   0.1238   0.1270   0.1282   0.1329   0.1362
  0.1378   0.1419   0.1449   0.1464   0.1483   0.1532   0.1544   0.1574
  0.1596   0.1635   0.1641   0.1669   0.1690   0.1725   0.1738   0.1789
  0.1827   0.1840   0.1893   0.1899   0.1942   0.1973   0.1986   0.2040
  0.2093   0.2100   0.2110   0.2155   0.2175   0.2231   0.2272   0.2306
  0.2312   0.2350   0.2389   0.2433   0.2452   0.2496   0.2535   0.2552
  0.2595   0.2628   0.2678   0.2688   0.2740   0.2753   0.2764   0.2795
  0.2816   0.2873   0.2897   0.2943   0.2959   0.2964   0.3011   0.3043
  0.3100   0.3137   0.3170   0.3215   0.3243   0.3282   0.3341   0.3422
  0.3484   0.3494   0.3571   0.3616   0.3653   0.3805   0.3907   0.3931
  0.3941   0.4013   0.4060   0.4124   0.4155   0.4193   0.4203   0.4286
  0.4325   0.4340   0.4379   0.4405   0.4434   0.4493   0.4509   0.4514
  0.4528   0.4602   0.4650   0.4667   0.4704   0.4745   0.4784   0.4819
  0.4855   0.4874   0.4895   0.4944   0.4967   0.4970   0.5024   0.5042
  0.5078   0.5095   0.5139   0.5152   0.5203   0.5237   0.5263   0.5291
  0.5302   0.5373   0.5426   0.5452   0.5489   0.5516   0.5544   0.5560
  0.5570   0.5627   0.5655   0.5691   0.5720   0.5745   0.5773   0.5799
  0.5822   0.5856   0.5858   0.5879   0.5904   0.5943   0.5992   0.6012
  0.6029   0.6054   0.6081   0.6098   0.6138   0.6169   0.6193   0.6216
  0.6240   0.6267   0.6290   0.6323   0.6366   0.6378   0.6402   0.6445
  0.6461   0.6468   0.6494   0.6521   0.6536   0.6560   0.6562   0.6585
  0.6611   0.6619   0.6648   0.6666   0.6673   0.6691   0.6718   0.6734
  0.6761   0.6779   0.6787   0.6821   0.6829   0.6876   0.6896   0.6909
  0.6921   0.6941   0.6954   0.6986   0.6993   0.7019   0.7073   0.7093
  0.7137   0.7146   0.7191   0.7198   0.7242   0.7269   0.7322   0.7349
  0.7370   0.7411   0.7430   0.7464   0.7493   0.7511   0.7561   0.7584
  0.7623   0.7646   0.7667   0.7744   0.7771   0.7802   0.7821   0.7861
  0.7949   0.7994   0.8030   0.8071   0.8081   0.8125   0.8161   0.8253
  0.8305   0.8347   0.8362   0.8393   0.8447   0.8508   0.8604   0.8643
  0.8661   0.8709   0.8755   0.8775   0.8817   0.8866   0.8901   0.8925
  0.9010   0.9054   0.9087   0.9134   0.9153   0.9175   0.9226   0.9241
  0.9284   0.9307   0.9386   0.9458   0.9507   0.9533   0.9565   0.9597
  0.9606   0.9733   0.9786   0.9846   0.9964   1.0017   1.0039   1.0087
  1.0126   1.0134   1.0154   1.0265   1.0293   1.0362   1.0385   1.0434
  1.0451   1.0484   1.0496   1.0541   1.0578   1.0625   1.0692   1.0736
  1.0759   1.0801   1.0833   1.0855   1.0918   1.0977   1.1047   1.1072
  1.1129   1.1155   1.1196   1.1250   1.1300   1.1319   1.1358   1.1388
  1.1460   1.1486   1.1502   1.1534   1.1549   1.1624   1.1633   1.1672
  1.1723   1.1744   1.1780   1.1786   1.1831   1.1894   1.1925   1.1997
  1.2040   1.2078   1.2087   1.2144   1.2197   1.2225   1.2268   1.2284
  1.2327   1.2391   1.2417   1.2441   1.2476   1.2494   1.2549   1.2593
  1.2630   1.2687   1.2740   1.2792   1.2835   1.2871   1.2899   1.2954
  1.3003   1.3019   1.3062   1.3193   1.3214   1.3260   1.3288   1.3347
  1.3429   1.3496   1.3526   1.3582   1.3592   1.3656   1.3684   1.3730
  1.3822   1.3833   1.3950   1.3997   1.4069   1.4149   1.4196   1.4268
  1.4285   1.4316   1.4377   1.4397   1.4451   1.4509   1.4581   1.4602
  1.4669   1.4692   1.4708   1.4784   1.4821   1.4874   1.4940   1.4976
  1.4998   1.5069   1.5098   1.5153   1.5176   1.5189   1.5222   1.5303
  1.5336   1.5379   1.5427   1.5456   1.5503   1.5558   1.5587   1.5624
  1.5667   1.5726   1.5763   1.5780   1.5790   1.5846   1.5853   1.5905
  1.5943   1.5968   1.6007   1.6068   1.6102   1.6140   1.6191   1.6213
  1.6219   1.6227   1.6310   1.6328   1.6345   1.6397   1.6414   1.6458
  1.6472   1.6488   1.6528   1.6549   1.6580   1.6607   1.6615   1.6661
  1.6755   1.6767   1.6779   1.6787   1.6819   1.6827   1.6876   1.6878
  1.6886   1.6947   1.6979   1.7000   1.7017   1.7059   1.7071   1.7093
  1.7154   1.7168   1.7176   1.7200   1.7227   1.7243   1.7272   1.7310
  1.7316   1.7347   1.7372   1.7390   1.7402   1.7416   1.7445   1.7481
  1.7523   1.7561   1.7571   1.7607   1.7633   1.7662   1.7688   1.7721
  1.7758   1.7769   1.7816   1.7845   1.7871   1.7883   1.7895   1.7918
  1.7956   1.7988   1.8018   1.8030   1.8045   1.8087   1.8114   1.8184
  1.8226   1.8235   1.8275   1.8305   1.8334   1.8389   1.8427   1.8440
  1.8476   1.8543   1.8557   1.8595   1.8637   1.8651   1.8692   1.8705
  1.8804   1.8892   1.8894   1.8901   1.8920   1.8949   1.9034   1.9083
  1.9138   1.9140   1.9191   1.9218   1.9241   1.9258   1.9304   1.9394
  1.9422   1.9464   1.9520   1.9535   1.9603   1.9614   1.9656   1.9702
  1.9731   1.9779   1.9813   1.9841   1.9879   1.9927   2.0010   2.0050
  2.0065   2.0131   2.0168   2.0199   2.0263   2.0299   2.0325   2.0342
  2.0378   2.0436   2.0441   2.0503   2.0563   2.0595   2.0645   2.0730
  2.0766   2.0854   2.0889   2.0946   2.0973   2.1008   2.1057   2.1090
  2.1149   2.1191   2.1231   2.1303   2.1318   2.1347   2.1438   2.1448
  2.1528   2.1585   2.1638   2.1642   2.1706   2.1746   2.1817   2.1874
  2.1903   2.1953   2.1966   2.2094   2.2136   2.2160   2.2200   2.2246
  2.2287   2.2366   2.2408   2.2480   2.2502   2.2544   2.2584   2.2643
  2.2678   2.2704   2.2735   2.2756   2.2816   2.2877   2.2975   2.3002
  2.3040   2.3085   2.3158   2.3201   2.3245   2.3288   2.3308   2.3366
  2.3413   2.3468   2.3479   2.3615   2.3671   2.3716   2.3758   2.3855
  2.3897   2.3989   2.4054   2.4103   2.4137   2.4216   2.4333   2.4355
  2.4418   2.4481   2.4510   2.4632   2.4640   2.4750   2.4754   2.4814
  2.4831   2.4899   2.4922   2.4966   2.5018   2.5127   2.5200   2.5238
  2.5325   2.5346   2.5377   2.5399   2.5522   2.5559   2.5639   2.5747
  2.5766   2.5802   2.5837   2.5893   2.5996   2.6027   2.6167   2.6174
  2.6250   2.6309   2.6397   2.6427   2.6483   2.6559   2.6574   2.6680
  2.6697   2.6890   2.6927   2.7012   2.7049   2.7086   2.7129   2.7156
  2.7162   2.7189   2.7291   2.7345   2.7394   2.7455   2.7499   2.7576
  2.7589   2.7626   2.7654   2.7735   2.7763   2.7825   2.7834   2.7877
  2.7939   2.7962   2.8040   2.8067   2.8169   2.8187   2.8255   2.8392
  2.8418   2.8464   2.8578   2.8658   2.8780   2.9239   2.9349   2.9379
  2.9523   2.9568   2.9668   2.9753   2.9835   3.0056   3.0153   3.0243
  3.0541   3.0749   3.0772   3.0930   3.0988   3.1034   3.1069   3.1260
  3.1303   3.1338   3.1380   3.1441   3.1528   3.1598   3.1630   3.1926
  3.2124   3.2365   3.2464   3.2809   3.2892   3.3087   3.3987   3.4262
  3.4321   3.4372   3.4463   3.4636   3.4651   3.4677   3.4712   3.4781
  3.4844   3.4873   3.4978   3.5025   3.5055   3.5302   3.5407   3.5848
  3.6288   3.7085   3.7205
 
 Beta MOs
 -- Occupied --
******** -30.0157 -25.8839 -25.8829 -25.8820 -19.0956 -19.0925 -19.0917
-19.0889 -19.0873 -19.0871 -19.0848 -19.0825 -19.0798 -19.0749 -19.0662
-14.3375 -14.3332 -14.3257 -14.3210 -14.2997 -14.2956 -10.2728 -10.2707
-10.2652 -10.2650 -10.2573 -10.2165 -10.2080 -10.2078 -10.2075 -10.2075
-10.2042 -10.2021 -10.2020 -10.2001 -10.1949 -10.1939 -10.1933 -10.1861
-10.1753 -10.1738 -10.1706 -10.1698 -10.1693 -10.1686 -10.1667 -10.1659
-10.1654 -10.1650 -10.1628 -10.1621 -10.1592 -10.1578 -10.1577 -10.1564
 -3.3739  -2.1365  -2.1363  -2.1348  -1.0220  -1.0175  -1.0152  -1.0132
 -1.0106  -0.9848  -0.9806  -0.9438  -0.9429  -0.9401  -0.9268  -0.9089
 -0.9067  -0.8971  -0.8943  -0.8869  -0.8863  -0.8155  -0.8149  -0.7780
 -0.7746  -0.7598  -0.7546  -0.7475  -0.7219  -0.7164  -0.7130  -0.7022
 -0.6957  -0.6918  -0.6823  -0.6603  -0.6526  -0.6258  -0.6193  -0.5993
 -0.5948  -0.5930  -0.5821  -0.5751  -0.5722  -0.5720  -0.5680  -0.5563
 -0.5542  -0.5468  -0.5435  -0.5382  -0.5101  -0.5016  -0.4997  -0.4844
 -0.4812  -0.4737  -0.4699  -0.4675  -0.4646  -0.4631  -0.4571  -0.4560
 -0.4525  -0.4510  -0.4480  -0.4454  -0.4423  -0.4388  -0.4361  -0.4354
 -0.4289  -0.4268  -0.4191  -0.4186  -0.4173  -0.4146  -0.4075  -0.4063
 -0.4034  -0.4022  -0.3992  -0.3982  -0.3971  -0.3930  -0.3915  -0.3891
 -0.3884  -0.3843  -0.3830  -0.3807  -0.3780  -0.3760  -0.3712  -0.3693
 -0.3656  -0.3618  -0.3607  -0.3586  -0.3559  -0.3544  -0.3514  -0.3453
 -0.3438  -0.3429  -0.3406  -0.3348  -0.3330  -0.3325  -0.3301  -0.3272
 -0.3246  -0.3146  -0.3143  -0.3125  -0.3112  -0.3085  -0.3060  -0.3039
 -0.2938  -0.2873  -0.2784  -0.2677  -0.2616  -0.2565  -0.2522  -0.2504
 -0.2472  -0.2462  -0.2437  -0.2417  -0.2396  -0.2364  -0.2356  -0.2349
 -0.2327  -0.2190  -0.2150  -0.2092  -0.2089  -0.2058  -0.2018  -0.1664
 -0.1597
 -- Virtual --
 -0.0513  -0.0486  -0.0446  -0.0104  -0.0048  -0.0031   0.0034   0.0290
  0.0301   0.0318   0.0414   0.0506   0.0604   0.0621   0.0660   0.0697
  0.0791   0.0812   0.0842   0.0843   0.0859   0.0875   0.0917   0.0944
  0.0991   0.1049   0.1068   0.1094   0.1141   0.1166   0.1188   0.1202
  0.1242   0.1272   0.1283   0.1331   0.1365   0.1380   0.1421   0.1451
  0.1465   0.1485   0.1534   0.1547   0.1578   0.1599   0.1637   0.1643
  0.1672   0.1692   0.1732   0.1742   0.1792   0.1829   0.1843   0.1898
  0.1902   0.1949   0.1981   0.1991   0.2048   0.2098   0.2103   0.2116
  0.2175   0.2189   0.2244   0.2304   0.2312   0.2326   0.2368   0.2411
  0.2447   0.2464   0.2502   0.2539   0.2557   0.2599   0.2633   0.2697
  0.2704   0.2753   0.2770   0.2777   0.2801   0.2832   0.2879   0.2902
  0.2951   0.2969   0.2974   0.3017   0.3117   0.3130   0.3182   0.3198
  0.3252   0.3289   0.3324   0.3363   0.3478   0.3515   0.3535   0.3579
  0.3642   0.3670   0.3841   0.3935   0.3955   0.3994   0.4052   0.4096
  0.4146   0.4178   0.4208   0.4220   0.4301   0.4335   0.4351   0.4394
  0.4412   0.4444   0.4502   0.4514   0.4527   0.4554   0.4617   0.4660
  0.4673   0.4722   0.4754   0.4795   0.4827   0.4860   0.4883   0.4906
  0.4952   0.4976   0.4986   0.5030   0.5046   0.5084   0.5119   0.5152
  0.5159   0.5211   0.5256   0.5269   0.5303   0.5313   0.5384   0.5431
  0.5468   0.5496   0.5521   0.5553   0.5568   0.5577   0.5633   0.5664
  0.5705   0.5728   0.5758   0.5778   0.5807   0.5829   0.5862   0.5865
  0.5884   0.5911   0.5948   0.6002   0.6016   0.6035   0.6057   0.6084
  0.6102   0.6143   0.6178   0.6197   0.6223   0.6254   0.6272   0.6303
  0.6330   0.6375   0.6381   0.6407   0.6456   0.6465   0.6472   0.6498
  0.6528   0.6540   0.6564   0.6565   0.6589   0.6617   0.6628   0.6653
  0.6675   0.6678   0.6700   0.6726   0.6737   0.6764   0.6786   0.6790
  0.6825   0.6833   0.6882   0.6908   0.6914   0.6935   0.6950   0.6972
  0.6991   0.7001   0.7026   0.7093   0.7102   0.7139   0.7154   0.7194
  0.7206   0.7248   0.7277   0.7327   0.7353   0.7376   0.7423   0.7433
  0.7472   0.7511   0.7525   0.7573   0.7593   0.7635   0.7659   0.7679
  0.7753   0.7785   0.7807   0.7831   0.7871   0.7964   0.8007   0.8077
  0.8083   0.8121   0.8172   0.8192   0.8262   0.8314   0.8360   0.8373
  0.8402   0.8487   0.8534   0.8631   0.8669   0.8675   0.8720   0.8768
  0.8825   0.8855   0.8906   0.8922   0.8955   0.9044   0.9057   0.9102
  0.9150   0.9180   0.9189   0.9238   0.9270   0.9299   0.9324   0.9402
  0.9468   0.9517   0.9544   0.9579   0.9604   0.9623   0.9748   0.9794
  0.9855   0.9975   1.0033   1.0050   1.0104   1.0140   1.0157   1.0191
  1.0289   1.0302   1.0375   1.0390   1.0458   1.0471   1.0494   1.0513
  1.0547   1.0597   1.0637   1.0712   1.0749   1.0784   1.0826   1.0843
  1.0869   1.0933   1.0984   1.1057   1.1102   1.1142   1.1164   1.1207
  1.1263   1.1316   1.1329   1.1371   1.1419   1.1469   1.1504   1.1516
  1.1548   1.1560   1.1642   1.1648   1.1695   1.1733   1.1769   1.1794
  1.1808   1.1849   1.1914   1.1959   1.2015   1.2054   1.2091   1.2110
  1.2153   1.2204   1.2239   1.2293   1.2300   1.2352   1.2411   1.2426
  1.2448   1.2493   1.2547   1.2570   1.2611   1.2651   1.2708   1.2755
  1.2814   1.2841   1.2887   1.2922   1.2964   1.3055   1.3067   1.3149
  1.3238   1.3262   1.3284   1.3313   1.3380   1.3453   1.3506   1.3549
  1.3603   1.3633   1.3697   1.3723   1.3788   1.3847   1.3901   1.3985
  1.4028   1.4121   1.4177   1.4247   1.4291   1.4302   1.4347   1.4399
  1.4407   1.4464   1.4526   1.4608   1.4653   1.4687   1.4713   1.4737
  1.4797   1.4896   1.4943   1.4985   1.5008   1.5091   1.5111   1.5133
  1.5170   1.5214   1.5270   1.5289   1.5328   1.5357   1.5404   1.5479
  1.5524   1.5545   1.5590   1.5639   1.5657   1.5705   1.5740   1.5780
  1.5812   1.5860   1.5861   1.5916   1.5944   1.5963   1.6014   1.6031
  1.6103   1.6125   1.6160   1.6212   1.6240   1.6250   1.6298   1.6326
  1.6365   1.6378   1.6432   1.6447   1.6463   1.6497   1.6513   1.6539
  1.6588   1.6602   1.6638   1.6649   1.6665   1.6767   1.6791   1.6799
  1.6828   1.6835   1.6842   1.6883   1.6898   1.6903   1.6957   1.6986
  1.7018   1.7032   1.7074   1.7081   1.7111   1.7165   1.7184   1.7199
  1.7215   1.7239   1.7263   1.7290   1.7320   1.7341   1.7359   1.7384
  1.7410   1.7415   1.7428   1.7476   1.7500   1.7533   1.7570   1.7604
  1.7640   1.7689   1.7707   1.7723   1.7738   1.7774   1.7779   1.7835
  1.7864   1.7879   1.7905   1.7934   1.7944   1.7979   1.8013   1.8026
  1.8047   1.8059   1.8120   1.8125   1.8203   1.8254   1.8268   1.8306
  1.8313   1.8356   1.8403   1.8471   1.8476   1.8505   1.8564   1.8574
  1.8609   1.8660   1.8675   1.8702   1.8718   1.8830   1.8901   1.8905
  1.8919   1.8941   1.8957   1.9053   1.9103   1.9148   1.9161   1.9210
  1.9227   1.9256   1.9273   1.9318   1.9432   1.9447   1.9468   1.9541
  1.9546   1.9616   1.9635   1.9696   1.9713   1.9758   1.9801   1.9825
  1.9868   1.9897   1.9965   2.0017   2.0056   2.0103   2.0142   2.0198
  2.0233   2.0279   2.0319   2.0350   2.0372   2.0393   2.0468   2.0483
  2.0539   2.0577   2.0631   2.0692   2.0760   2.0782   2.0867   2.0895
  2.0955   2.0983   2.1022   2.1081   2.1099   2.1155   2.1200   2.1241
  2.1319   2.1323   2.1356   2.1454   2.1457   2.1540   2.1614   2.1655
  2.1661   2.1729   2.1761   2.1829   2.1891   2.1917   2.1963   2.1977
  2.2110   2.2156   2.2188   2.2226   2.2267   2.2300   2.2375   2.2441
  2.2488   2.2529   2.2552   2.2587   2.2648   2.2688   2.2723   2.2756
  2.2797   2.2836   2.2883   2.2983   2.3023   2.3051   2.3089   2.3176
  2.3217   2.3259   2.3305   2.3325   2.3377   2.3430   2.3489   2.3503
  2.3649   2.3703   2.3730   2.3774   2.3863   2.3918   2.3997   2.4086
  2.4148   2.4166   2.4225   2.4342   2.4356   2.4427   2.4503   2.4554
  2.4642   2.4668   2.4753   2.4759   2.4817   2.4868   2.4904   2.4955
  2.4977   2.5038   2.5155   2.5203   2.5262   2.5339   2.5367   2.5384
  2.5413   2.5530   2.5589   2.5644   2.5767   2.5774   2.5820   2.5847
  2.5910   2.6000   2.6031   2.6172   2.6187   2.6258   2.6320   2.6423
  2.6439   2.6500   2.6566   2.6596   2.6693   2.6714   2.6907   2.6950
  2.7015   2.7064   2.7106   2.7142   2.7184   2.7203   2.7333   2.7352
  2.7422   2.7465   2.7494   2.7541   2.7615   2.7645   2.7663   2.7741
  2.7775   2.7812   2.7861   2.7869   2.7921   2.7957   2.8007   2.8096
  2.8115   2.8183   2.8212   2.8287   2.8432   2.8478   2.8562   2.8616
  2.8718   2.8871   2.9260   2.9379   2.9533   2.9610   2.9667   2.9709
  2.9806   3.0038   3.0464   3.0540   3.0560   3.0760   3.0840   3.1013
  3.1036   3.1083   3.1086   3.1240   3.1294   3.1320   3.1440   3.1530
  3.1568   3.1777   3.1848   3.1962   3.2133   3.2387   3.2670   3.2824
  3.2924   3.3092   3.3702   3.4274   3.4370   3.4420   3.4521   3.4669
  3.4714   3.4727   3.4799   3.4810   3.4852   3.4910   3.5010   3.5053
  3.5135   3.5359   3.5541   3.6033   3.6332   3.6660   3.7132   3.7259
 --------------------------------------------------------------
 
          Ground-State Mulliken Net Atomic Charges

     Atom                 Charge (a.u.)    Spin (a.u.)
  --------------------------------------------------------
      1 C                     0.137813       0.000189
      2 C                    -0.080382       0.017131
      3 C                    -0.040862       0.003909
      4 C                     0.003149       0.002872
      5 C                    -0.036585       0.010128
      6 C                     0.122605       0.002836
      7 H                    -0.053227      -0.000203
      8 O                    -0.454436       0.110086
      9 C                     0.148281       0.000304
     10 O                    -0.367473       0.001560
     11 N                    -0.148697       0.000239
     12 H                     0.111778      -0.000023
     13 C                     0.094739      -0.000021
     14 H                     0.012939       0.000026
     15 H                     0.017450      -0.000001
     16 C                    -0.034148       0.000012
     17 H                     0.007032       0.000006
     18 H                     0.015484      -0.000001
     19 C                     0.071277       0.000008
     20 H                     0.011657      -0.000018
     21 H                     0.000108      -0.000001
     22 N                    -0.231518       0.000044
     23 H                     0.084162      -0.000004
     24 C                    -0.037215       0.000064
     25 H                     0.038071      -0.000016
     26 H                    -0.012207      -0.000005
     27 C                     0.048467       0.000152
     28 H                    -0.006945       0.000015
     29 H                     0.043834      -0.000024
     30 C                     0.006424       0.000025
     31 H                    -0.012519       0.000003
     32 H                    -0.022529       0.000004
     33 C                     0.089245       0.000010
     34 H                     0.020071      -0.000114
     35 H                    -0.001428      -0.000009
     36 N                    -0.135801      -0.000233
     37 H                     0.145604       0.002309
     38 C                     0.079351      -0.000334
     39 O                    -0.377692       0.000155
     40 C                     0.176177       0.003094
     41 H                     0.030217       0.000323
     42 H                    -0.008665       0.001251
     43 C                     0.142501       0.003787
     44 H                     0.039557       0.000014
     45 H                    -0.016229       0.000592
     46 C                     0.060193      -0.000038
     47 O                    -0.365168       0.001093
     48 N                    -0.142854       0.000873
     49 C                     0.091161      -0.000030
     50 H                     0.154746       0.000365
     51 C                    -0.031996       0.000043
     52 H                     0.014550       0.000049
     53 H                     0.002768      -0.000004
     54 C                    -0.010920       0.000004
     55 H                    -0.005531       0.000012
     56 H                     0.018135      -0.000009
     57 C                     0.081420       0.000003
     58 H                    -0.011408       0.000005
     59 H                     0.004455       0.000010
     60 H                     0.000866       0.000001
     61 H                    -0.006704       0.000000
     62 C                     0.146025       0.000486
     63 C                    -0.021160       0.003232
     64 O                    -0.363482       0.000369
     65 C                    -0.038925       0.004112
     66 C                    -0.036211       0.016118
     67 C                    -0.044567       0.009258
     68 C                     0.121308       0.000934
     69 C                     0.135293       0.005306
     70 H                    -0.052703      -0.000010
     71 O                    -0.459205       0.130060
     72 C                    -0.121356       0.005004
     73 O                    -0.535115       0.147452
     74 C                     0.202634       0.003400
     75 O                    -0.378188       0.078038
     76 O                    -0.400456       0.012023
     77 H                    -0.046616      -0.000057
     78 O                    -0.461638       0.123551
     79 H                    -0.077716      -0.000249
     80 O                    -0.441076       0.113313
     81 Fe                    0.487012       4.183904
     82 N                    -0.255449       0.000008
     83 H                     0.082215      -0.000003
     84 N                    -0.130568       0.000605
     85 H                     0.105936       0.000034
     86 C                     0.087332       0.000050
     87 H                     0.020537       0.000001
     88 H                     0.017198       0.000014
     89 C                     0.000669       0.000046
     90 H                     0.000620       0.000036
     91 H                     0.007065      -0.000003
     92 C                     0.058023       0.000024
     93 H                     0.008864       0.000006
     94 H                     0.014690       0.000069
     95 H                    -0.064822       0.000207
     96 H                    -0.039319       0.000145
  --------------------------------------------------------
  Sum of atomic charges =    -3.000000
  Sum of spin   charges =     5.000000

 -----------------------------------------------------------------
                    Cartesian Multipole Moments
 -----------------------------------------------------------------
    Charge (ESU x 10^10)
               -14.4096
    Dipole Moment (Debye)
         X      -7.2975      Y      -4.1519      Z       6.1052
       Tot      10.3810
    Quadrupole Moments (Debye-Ang)
        XX    -486.6941     XY      22.2979     YY    -438.9806
        XZ      15.4543     YZ     -30.7639     ZZ    -359.4494
    Octopole Moments (Debye-Ang^2)
       XXX    -202.0811    XXY      83.3240    XYY    -163.5732
       YYY    -338.9788    XXZ     593.2614    XYZ     -10.7797
       YYZ     101.3400    XZZ     -78.9218    YZZ      -9.1118
       ZZZ     167.3431
    Hexadecapole Moments (Debye-Ang^3)
      XXXX  -53462.8176   XXXY    1982.1210   XXYY  -10598.9995
      XYYY     -24.4073   YYYY  -10756.0878   XXXZ    1492.6373
      XXYZ   -1028.6115   XYYZ     379.6213   YYYZ     -13.7277
      XXZZ   -8834.2417   XYZZ      37.3313   YYZZ   -2215.8270
      XZZZ     477.0568   YZZZ    -104.2145   ZZZZ   -3274.7770
 -----------------------------------------------------------------
 Calculating analytic gradient of the SCF energy
 Gradient of SCF Energy
            1           2           3           4           5           6
    1   0.0335490  -0.0268632  -0.0671903   0.0151467  -0.0137979   0.0204546
    2  -0.0298352   0.0116836   0.0407316  -0.0038306   0.0008137   0.0103120
    3   0.0090868   0.0110491  -0.0204755   0.0049780   0.0242920  -0.0343741
            7           8           9          10          11          12
    1  -0.0145815   0.0654012   0.0988050  -0.1006996  -0.0459552   0.0509533
    2   0.0304449  -0.0441602  -0.0239254   0.0269028   0.0374994  -0.0190561
    3  -0.0646996   0.0296094  -0.0569591   0.1011036  -0.0018582  -0.0425749
           13          14          15          16          17          18
    1   0.0164424  -0.0123723  -0.0324838   0.0046379  -0.0335871   0.0274810
    2  -0.0134743   0.0228714   0.0058473  -0.0038366  -0.0081715  -0.0045837
    3   0.0013706  -0.0320945   0.0313507   0.0213435  -0.0127148  -0.0314755
           19          20          21          22          23          24
    1   0.0052824   0.0140146  -0.0362519   0.0079602  -0.0092071  -0.0217382
    2   0.0104974   0.0253558  -0.0227827  -0.0068227  -0.0263426  -0.0108446
    3  -0.0365515   0.0412746   0.0095434   0.0449958  -0.0488550   0.0245156
           25          26          27          28          29          30
    1   0.0593843  -0.0120507  -0.0330948   0.0057890   0.0145642   0.0104604
    2   0.0328855  -0.0294735  -0.0226973   0.0334047   0.0329411   0.0261406
    3  -0.0106126  -0.0497518  -0.0032065  -0.0373953   0.0531018  -0.0063004
           31          32          33          34          35          36
    1   0.0142109  -0.0460719   0.0073674  -0.0155560  -0.0078923  -0.0499736
    2  -0.0528321  -0.0108056   0.0009687   0.0614187  -0.0398716  -0.0411419
    3  -0.0260939   0.0245149  -0.0212952   0.0224604   0.0481499   0.0172368
           37          38          39          40          41          42
    1   0.0442264   0.0529708  -0.0624793   0.0020744   0.0438856   0.0177691
    2   0.0885319   0.1046593  -0.1698520   0.0332752  -0.0011982  -0.0572372
    3  -0.0123565  -0.0172129   0.0190907  -0.0176579   0.0576416  -0.0388610
           43          44          45          46          47          48
    1  -0.0164113   0.0101015  -0.0062477  -0.0762827   0.0912054   0.0771141
    2  -0.0092217   0.0662656  -0.0497623   0.0858423  -0.1505239   0.0000442
    3   0.0336682  -0.0371491  -0.0485863   0.0073586  -0.0228880   0.0015995
           49          50          51          52          53          54
    1   0.0055806  -0.0720535   0.0068755  -0.0305121   0.0040464   0.0099086
    2   0.0048744   0.0585425  -0.0114486   0.0252372  -0.0572205   0.0152307
    3  -0.0233875   0.0128618  -0.0161930   0.0500239   0.0117531   0.0183741
           55          56          57          58          59          60
    1   0.0192946  -0.0047504  -0.0199888  -0.0009214  -0.0173198   0.0232791
    2  -0.0086693   0.0536511   0.0154645  -0.0498578   0.0147446  -0.0254632
    3   0.0443111  -0.0092845  -0.0074864   0.0045223  -0.0507825  -0.0269545
           61          62          63          64          65          66
    1   0.0118920  -0.0520772   0.0810238   0.0313570   0.0044699   0.0076483
    2  -0.0120761   0.0051102   0.0110664  -0.0150332   0.0053212   0.0165269
    3   0.0412269  -0.0912021   0.0418461   0.1247955  -0.0072824  -0.0205818
           67          68          69          70          71          72
    1   0.0094946  -0.0357109  -0.0213456  -0.0051757  -0.0476119  -0.0261943
    2   0.0080437  -0.0214790  -0.0126488  -0.0124061   0.0156465   0.0203758
    3  -0.0165346  -0.0139277   0.0326768  -0.0729393   0.0666523   0.0011882
           73          74          75          76          77          78
    1   0.0130703   0.0995666  -0.0574004  -0.0650681   0.0114307   0.0394749
    2  -0.0084611   0.0711872   0.0888501  -0.1499716  -0.0365824   0.0331566
    3   0.0254702   0.1297529  -0.0159662  -0.1403555   0.0649722  -0.0632632
           79          80          81          82          83          84
    1   0.0092393  -0.0662416   0.0070898   0.0565626  -0.0407541   0.0325838
    2   0.0097718  -0.0081680  -0.0148760  -0.0118778   0.0319785   0.0181349
    3   0.0787718  -0.0538193  -0.0076273  -0.0154693   0.0302245   0.0269353
           85          86          87          88          89          90
    1  -0.0159337  -0.0129795   0.0088118   0.0195005  -0.0066929   0.0348903
    2   0.0083558  -0.0114585  -0.0063680   0.0313245   0.0035281  -0.0041476
    3  -0.0571861  -0.0166263   0.0439991  -0.0093481   0.0054364   0.0081994
           91          92          93          94          95          96
    1  -0.0004545   0.0056891   0.0184469  -0.0404771  -0.0450238   0.0429971
    2   0.0072426   0.0015877  -0.0284847   0.0041334  -0.0104801   0.0010376
    3  -0.0338662   0.0246657  -0.0239675  -0.0116200   0.0505886  -0.0409123
 Max gradient component =       1.699E-01
 RMS gradient           =       4.144E-02
 Computing fast CPCM-SWIG gradient
 Updating gradient with PCM contributions...
 -- total gradient after adding PCM contribution --
---------------------------------------------------
  Atom         X              Y              Z     
---------------------------------------------------
   1      -0.000285      -0.000362      -0.000333
   2       0.000088       0.000205       0.000119
   3      -0.000090      -0.000023      -0.000061
   4       0.000196       0.000182       0.000189
   5      -0.000166      -0.000094      -0.000046
   6       0.000108      -0.000025       0.000041
   7       0.000013      -0.000010      -0.000023
   8       0.000022       0.000133      -0.000000
   9      -0.000031      -0.000004       0.000009
  10       0.000023       0.000013      -0.000017
  11      -0.000055      -0.000086      -0.000013
  12       0.000022      -0.000005       0.000048
  13      -0.000136       0.000174      -0.000140
  14       0.000021      -0.000017       0.000052
  15       0.000029      -0.000060       0.000083
  16      -0.000015      -0.000161      -0.000133
  17       0.000022      -0.000054       0.000001
  18       0.000136       0.000129       0.000093
  19      -0.000114      -0.000030      -0.000011
  20       0.000164      -0.000008      -0.000012
  21      -0.000030       0.000086       0.000022
  22       0.000085       0.000018       0.000065
  23      -0.000058      -0.000035       0.000021
  24      -0.000060      -0.000020       0.000046
  25       0.000014       0.000034       0.000056
  26      -0.000010      -0.000008      -0.000011
  27      -0.000024      -0.000111      -0.000353
  28       0.000000      -0.000022       0.000079
  29       0.000022       0.000036       0.000075
  30       0.000068      -0.000010      -0.000045
  31      -0.000004       0.000017      -0.000010
  32      -0.000017      -0.000031       0.000023
  33      -0.000045       0.000298       0.000073
  34       0.000044      -0.000060       0.000013
  35      -0.000004      -0.000160      -0.000074
  36      -0.000299      -0.000028      -0.000377
  37       0.000114      -0.000070       0.000039
  38       0.000087      -0.000104       0.000616
  39      -0.000013       0.000110      -0.000077
  40       0.000065       0.000159      -0.000533
  41       0.000302      -0.000221      -0.000096
  42      -0.000091      -0.000045       0.000022
  43       0.000240      -0.000157      -0.000291
  44      -0.000050      -0.000051      -0.000197
  45       0.000122      -0.000173       0.000217
  46       0.000526       0.000611      -0.000492
  47      -0.000135      -0.000161       0.000093
  48      -0.000809      -0.000314       0.000548
  49       0.000283       0.000063      -0.000028
  50      -0.000221       0.000165       0.000076
  51      -0.000306      -0.000107      -0.000268
  52       0.000195      -0.000003      -0.000033
  53      -0.000155      -0.000065       0.000033
  54       0.000197       0.000215      -0.000152
  55       0.000011       0.000047       0.000073
  56       0.000098       0.000015       0.000084
  57      -0.000096      -0.000229       0.000500
  58       0.000016      -0.000071      -0.000083
  59      -0.000030      -0.000042       0.000049
  60      -0.000043      -0.000060      -0.000083
  61      -0.000068       0.000164      -0.000066
  62      -0.000122       0.000036      -0.000033
  63       0.000130      -0.000376       0.000219
  64       0.000000      -0.000067      -0.000027
  65      -0.000248       0.000274      -0.000285
  66       0.000233       0.000228      -0.000089
  67       0.000188       0.000068      -0.000008
  68      -0.000114      -0.000036      -0.000151
  69       0.000031      -0.000068       0.000244
  70      -0.000050      -0.000061       0.000045
  71      -0.000123       0.000074       0.000014
  72       0.000120       0.000768       0.001171
  73      -0.000563      -0.000520      -0.000253
  74       0.000083      -0.000022      -0.000416
  75       0.000057      -0.000053       0.000043
  76      -0.000116      -0.000107       0.000049
  77       0.000041      -0.000029      -0.000016
  78       0.000426       0.000317       0.000211
  79      -0.000095      -0.000060       0.000042
  80      -0.000261       0.000003      -0.000054
  81       0.000357      -0.000042      -0.000008
  82       0.000332       0.000015      -0.000195
  83      -0.000102      -0.000054      -0.000016
  84      -0.000040      -0.000113      -0.000039
  85      -0.000017       0.000108       0.000030
  86       0.000139       0.000269      -0.000029
  87      -0.000145       0.000002       0.000063
  88      -0.000027      -0.000027      -0.000101
  89       0.000439      -0.000170       0.000440
  90      -0.000066       0.000036      -0.000146
  91      -0.000215      -0.000005      -0.000063
  92      -0.000054       0.000177       0.000041
  93      -0.000059      -0.000047      -0.000069
  94       0.000006      -0.000044      -0.000040
  95      -0.000070      -0.000052      -0.000075
  96       0.000032       0.000000       0.000093
---------------------------------------------------
 Number of fixed atoms: 0
 Gradient time:  CPU 43091.15 s  wall 2250.98 s

 *****************************************************
             Starting BFGS Algorithm
 *****************************************************
            LIBOPT3 RUN PARAMETERS

  Geometry Optimization Coordinates :
	Delocalized Natural Internal Coordinates

  Step Length Selection Method :
	Eigenvector Following Algorithm

  Convergence Criteria :
	Max Gradient Component    	3.00000000e-04
	Max Displacement Component	1.20000000e-03
	Absolute Energy Difference	1.00000000e-06

  Initial Hessian :
	Approximate Hessian - Simple Internal Coordinate Scaled

  Type of Verification :
	Verify with final updated Hessian
 *****************************************************

	OPTIMIZATION CYCLE:	1

 Scaling Magnitude of Eigenvalues
 	Minimum: -25.00000000	 Maximum: 25.00000000
 282 Hessian Eigenvalues to form next step
   0.10000000   0.10000000   0.10000000   0.10000000   0.10000000
   0.10000000   0.10000000   0.10000000   0.10000000   0.10000000
   0.10000000   0.10000000   0.10000000   0.10000000   0.10000000
   0.10000000   0.10000000   0.10000001   0.10000023   0.10000049
   0.10000077   0.10000085   0.10000087   0.10000243   0.10000284
   0.10000397   0.10000505   0.10000724   0.10001087   0.10001341
   0.10001726   0.10003215   0.10004499   0.10005527   0.10006079
   0.10008849   0.10009102   0.10010079   0.10011611   0.10018083
   0.10023297   0.10039413   0.10048751   0.10080617   0.10145863
   0.10280481   0.10298547   0.10459096   0.10526723   0.10579151
   0.10644859   0.10678787   0.10808396   0.10939247   0.11234539
   0.11317327   0.11387760   0.11536951   0.11580094   0.11629484
   0.11822213   0.11872104   0.11933610   0.11974817   0.12037625
[...]
  30       0.000050      -0.000076      -0.000018
  31      -0.000032      -0.000005      -0.000005
  32       0.000003       0.000040       0.000013
  33       0.000004       0.000050      -0.000018
  34      -0.000011      -0.000009      -0.000002
  35       0.000006      -0.000015      -0.000014
  36      -0.000008      -0.000014      -0.000018
  37       0.000005       0.000001       0.000006
  38       0.000007       0.000024       0.000073
  39      -0.000003      -0.000027      -0.000023
  40      -0.000037      -0.000047      -0.000029
  41       0.000011      -0.000025      -0.000020
  42      -0.000020       0.000007      -0.000011
  43      -0.000034      -0.000106       0.000016
  44       0.000017       0.000021       0.000003
  45       0.000021       0.000043      -0.000049
  46       0.000058       0.000033      -0.000062
  47      -0.000003      -0.000021       0.000007
  48      -0.000102       0.000009       0.000059
  49       0.000029       0.000039      -0.000012
  50       0.000085      -0.000007      -0.000025
  51      -0.000014      -0.000006       0.000072
  52      -0.000020      -0.000023       0.000027
  53       0.000015       0.000006      -0.000053
  54       0.000047       0.000050      -0.000079
  55      -0.000023      -0.000006      -0.000013
  56       0.000006       0.000001      -0.000040
  57      -0.000051      -0.000000       0.000143
  58       0.000004       0.000001       0.000037
  59      -0.000007      -0.000051      -0.000009
  60      -0.000003       0.000034      -0.000051
  61       0.000021      -0.000033      -0.000021
  62       0.000018      -0.000022      -0.000007
  63      -0.000033       0.000006       0.000036
  64      -0.000011       0.000024       0.000017
  65      -0.000016      -0.000006      -0.000008
  66       0.000040      -0.000015      -0.000001
  67       0.000053       0.000011       0.000001
  68       0.000002      -0.000003      -0.000069
  69      -0.000001      -0.000071       0.000057
  70      -0.000012       0.000010      -0.000002
  71       0.000020       0.000063       0.000040
  72       0.000105       0.000177       0.000150
  73      -0.000098      -0.000079      -0.000047
  74      -0.000034      -0.000033      -0.000043
  75      -0.000036      -0.000064      -0.000042
  76       0.000012       0.000028      -0.000011
  77       0.000008       0.000006       0.000006
  78      -0.000011      -0.000004       0.000002
  79      -0.000009      -0.000009       0.000006
  80      -0.000062       0.000089       0.000011
  81       0.000058      -0.000013       0.000015
  82       0.000013      -0.000011      -0.000033
  83      -0.000001       0.000006       0.000002
  84      -0.000001       0.000047       0.000021
  85       0.000002      -0.000015       0.000002
  86       0.000016      -0.000013      -0.000048
  87      -0.000012      -0.000018       0.000006
  88      -0.000003       0.000001       0.000031
  89      -0.000012       0.000027       0.000030
  90       0.000003       0.000001       0.000010
  91       0.000003      -0.000001       0.000003
  92      -0.000009       0.000022       0.000017
  93      -0.000007       0.000010      -0.000006
  94       0.000003      -0.000003       0.000012
  95      -0.000004      -0.000007       0.000004
  96       0.000003       0.000002       0.000001
---------------------------------------------------
 Number of fixed atoms: 0
 Gradient time:  CPU 43309.78 s  wall 2269.41 s

     Step 16	:
        Energy is -3742.9411425998
                            Maximum         Tolerance       Converged?
         Gradient           6.88058217e-05	3.00000000e-04	true
         Displacement       2.74379818e-03	1.20000000e-03	false
         Energy change      9.71544068e-07	1.00000000e-06	true

	 Optimization Converged in 16 cycles

 *****************************************************
             End of BFGS Algorithm
 *****************************************************
		----------------------------------
		   Verification of Optimization
		----------------------------------

 Eigenvalues of Hessian in Optimization Verification
   0.00181300   0.00769719   0.02032036   0.03605750   0.08447447
   0.10000000   0.10000000   0.10000000   0.10000002   0.10000003
   0.10000004   0.10000013   0.10000025   0.10000035   0.10000063
   0.10000089   0.10000213   0.10000285   0.10000383   0.10000427
   0.10000547   0.10000752   0.10001074   0.10001435   0.10001632
   0.10001854   0.10002996   0.10003315   0.10004487   0.10004720
   0.10005505   0.10005896   0.10007728   0.10008428   0.10009965
   0.10013032   0.10016425   0.10025309   0.10032405   0.10046219
   0.10050657   0.10080618   0.10087942   0.10139387   0.10160290
   0.10207834   0.10312661   0.10348098   0.10487421   0.10540797
   0.10580375   0.10623483   0.10675642   0.10797201   0.10881594
   0.11163874   0.11215832   0.11390103   0.11548349   0.11618655
   0.11770456   0.11832871   0.11874738   0.11932780   0.11972681
   0.12009860   0.12087864   0.12180399   0.12211952   0.12316452
   0.12353423   0.12465701   0.12480493   0.12571316   0.12588007
   0.12629207   0.12679760   0.12694611   0.12713966   0.12778236
   0.12792136   0.12824871   0.12918646   0.12931338   0.13012135
   0.13166621   0.13216880   0.13316182   0.13358546   0.13449935
   0.13580896   0.13759523   0.14127318   0.14207522   0.14435626
   0.14617455   0.14918398   0.15127892   0.15193249   0.15273072
   0.15277978   0.15287757   0.15320306   0.15474825   0.15547358
   0.15605685   0.15634358   0.15674144   0.15700831   0.15744996
   0.15874349   0.15976158   0.16095984   0.16199820   0.16235671
   0.16917413   0.16942707   0.17111509   0.17194997   0.17426467
   0.17632472   0.17672517   0.17733115   0.17744931   0.17773094
   0.17835635   0.17854899   0.17975153   0.17983705   0.18080208
   0.18140771   0.18156686   0.18266485   0.18304584   0.18490394
   0.18514380   0.18786621   0.18900451   0.18989718   0.19193215
   0.19225519   0.19347941   0.19421413   0.19634608   0.19726414
   0.19787593   0.19886624   0.19906095   0.19910289   0.19952154
   0.19959710   0.19971382   0.19975160   0.19979397   0.19982242
   0.19983564   0.19986624   0.19991401   0.19993609   0.19995395
   0.19995973   0.19998460   0.19999030   0.19999365   0.19999713
   0.19999790   0.19999898   0.19999996   0.20000833   0.20004699
   0.20044036   0.20067260   0.20318270   0.21318360   0.21791554
   0.23816449   0.25801216   0.26886382   0.33353346   0.35693916
   0.38298667   0.40128458   0.40408524   0.40817903   0.41975623
   0.43874544   0.44688563   0.44832999   0.45578510   0.46264360
   0.46619857   0.46777468   0.46963096   0.48306603   0.48587434
   0.49146402   0.49271368   0.49465632   0.49507681   0.49533097
   0.49736860   0.49872908   0.49939317   0.49952743   0.49962086
   0.49979737   0.49984062   0.49999538   0.50000000   0.50000000
   0.50000000   0.50000000   0.50000000   0.50000000   0.50000000
   0.50000000   0.50000000   0.50000000   0.50000000   0.50000000
   0.50000000   0.50000000   0.50000000   0.50000000   0.50000000
   0.50000000   0.50000000   0.50000000   0.50000000   0.50000000
   0.50000000   0.50000000   0.50000000   0.50000000   0.50000000
   0.50000000   0.50000000   0.50000000   0.50000000   0.50000000
   0.50000000   0.50000000   0.50000000   0.50000000   0.50000000
   0.50000000   0.50000000   0.50000000   0.50000000   0.50000000
   0.50000000   0.50000000   0.50000000   0.50000000   0.50000000
   0.50000000   0.50000000   0.50000000   0.50000000   0.50000000
   0.50000000   0.50000000   0.50000000   0.50000000   0.50000000
   0.50000000   0.50000000   0.50000280   0.50000553   0.50002356
   0.50007330   0.50012648   0.50075748   0.50192671   0.50703707
   0.51015480   0.51676240   0.53111769   0.54868268   0.55420574
   0.55793769   0.58717033

 Found a minimum
		---------------------------------
		       End of Verification
		---------------------------------

 Final energy is -3742.941142599773

	******************************
	**  OPTIMIZATION CONVERGED  **
	******************************
 Adding empirical dispersion correction 
 ----------------------------------------------------------------
 Doing -D3(BJ) with
 s6  =   1.00000
 s8  =   1.98890
 a1  =   0.39810
 a2  =   4.42110
 -D3 energy without 3body term =     -0.2458453653 hartrees
 ----------------------------------------------------------------
             Standard Nuclear Orientation (Angstroms)
    I     Atom           X                Y                Z
 ----------------------------------------------------------------
    1      C       3.0176010645    -1.8048005398    -0.4448772090
    2      C       4.2892001857    -2.3465631739    -0.2483367199
    3      C       5.2982121553    -2.2203812347    -1.2367737035
    4      C       4.9867035469    -1.6145790603    -2.4615957551
    5      C       3.7265159898    -1.0410288016    -2.6715993350
    6      C       2.7539033977    -1.0641345270    -1.6568951258
    7      H       4.4865114380    -2.8568553839     0.6987507543
    8      O       1.5986100489    -0.4360451503    -1.7193467978
    9      C       6.7379334973    -2.4441611220    -0.9524892745
   10      O       7.5959692469    -2.5612803510    -1.8429973841
   11      N       7.0847909165    -2.4102010376     0.3784139280
   12      H       6.3402594124    -2.1219501204     1.0052229259
   13      C       8.4146384213    -1.9876199907     0.8035117004
   14      H       8.7420269273    -2.6023871633     1.6578816392
   15      H       9.0986147500    -2.1835135280    -0.0341162568
   16      C       8.4203281522    -0.5011307721     1.1930314285
   17      H       9.4068016184    -0.2547644439     1.6211438613
   18      H       7.6888630167    -0.3536939875     2.0074778683
   19      C       8.0858051277     0.4720257940     0.0273966645
   20      H       7.8010467218    -0.1038193789    -0.8670036171
   21      H       8.9998796667     1.0253064887    -0.2453131030
   22      N       7.0256760427     1.4566039723     0.2635248166
   23      H       7.2287201966     1.9597716061     1.1315273611
   24      C       4.6282106423     1.9800107002     0.5946062833
   25      H       3.6518077650     1.5017272543     0.7740373416
   26      H       4.8851651519     2.5088183563     1.5314044436
   27      C       5.6770532528     0.8913123303     0.3555775819
   28      H       5.5825079161     0.1267836329     1.1561858445
   29      H       5.4675957389     0.3587444279    -0.5870166386
   30      C       4.5020219702     2.9979117492    -0.5486554782
   31      H       4.1648604458     3.9700119774    -0.1597349033
   32      H       5.4976851271     3.1597391242    -0.9947591481
   33      C       3.5262433463     2.5867390271    -1.6617677476
   34      H       3.7727181937     1.5858727535    -2.0406547807
   35      H       3.6183847374     3.2987957820    -2.4995220044
   36      N       2.1331878172     2.5434589887    -1.2243561479
   37      H       1.6477037588     1.6439019464    -1.2037351509
   38      C       1.4587084072     3.6620262794    -0.8793253982
   39      O       1.9540500644     4.7965203552    -0.9807817142
   40      C       0.0403355790     3.4874177700    -0.3503483440
   41      H      -0.6573920858     3.5420799886    -1.2030276054
   42      H      -0.1477049198     4.3626089080     0.2857706267
   43      C      -1.5807409214     2.3136430942     1.2113994380
   44      H      -1.7452336842     1.3575577656     1.7331120818
   45      H      -1.4975380292     3.1152935000     1.9560526065
   46      C      -2.7773928324     2.6174751463     0.3204393749
   47      O      -3.4910660889     3.6169098907     0.4869916559
   48      N      -2.9728247404     1.7043118626    -0.6653397651
   49      C      -3.8275615605     1.9730489339    -1.8181315170
   50      H      -2.1388288324     1.1150373433    -0.8096056243
   51      C      -5.2369378637     1.3751217919    -1.7475708850
   52      H      -3.3114676329     1.5601172797    -2.6990000480
   53      H      -3.9011830899     3.0657382048    -1.9534655229
   54      C      -6.1533766346     2.0044761996    -0.6945591823
   55      H      -5.6972405223     1.5247910265    -2.7432092101
   56      H      -5.1716376222     0.2845141676    -1.6009869553
   57      C      -7.6352756145     1.6447857382    -0.8976295947
   58      H      -6.0584953875     3.1032550368    -0.7463463715
   59      H      -5.8203798295     1.7215946601     0.3193075821
   60      H      -8.2547198029     2.2652021196    -0.2259522442
   61      H      -7.9162709085     1.9261167666    -1.9297209297
   62      C      -5.7765062469    -2.3656260754    -0.4113233474
   63      C      -4.4292902922    -2.1808273202     0.1773059923
   64      O      -6.0371554185    -2.0326582456    -1.5860411240
   65      C      -4.2459823809    -1.9885042055     1.5565029196
   66      C      -3.3152003456    -2.0681996405    -0.6917814301
   67      C      -2.9801685315    -1.6752896629     2.0689294074
   68      C      -2.0422599377    -1.7707299698    -0.2026439731
   69      C      -1.8714120263    -1.5445596168     1.2152395204
   70      H      -2.8442391295    -1.4878055214     3.1379262223
   71      O      -0.9549445539    -1.6370091857    -0.9507473571
   72      C      -0.2492226976     2.1737142767     0.4103814472
   73      O      -0.3338292439     1.1088617940    -0.4879575100
   74      C       0.8797518565     1.9147159461     1.4476299455
   75      O       1.3981336112     0.7364815561     1.4042862414
   76      O       1.2129922653     2.8179430968     2.2338779073
   77      H       3.5023439701    -0.5104597439    -3.6014529489
   78      O       2.0228260772    -1.8780963691     0.4286243410
   79      H      -3.4632000722    -2.1928537992    -1.7667430035
   80      O      -0.6671390421    -1.1919622989     1.6145983569
   81      Fe      0.5004684264    -0.6069991231     0.0313163565
   82      N      -8.0323842958     0.2493372981    -0.6930238518
   83      H      -7.4307702272    -0.3602534264    -1.2539122332
   84      N      -6.7386165678    -2.9072352599     0.3952417697
   85      H      -6.4707831619    -3.1311032448     1.3471284395
   86      C      -8.1581876907    -2.6962131828     0.1498468563
   87      H      -8.2761764562    -2.5423265704    -0.9306563414
   88      H      -8.7116249647    -3.6090515810     0.4198862722
   89      C      -8.7139837185    -1.4983046193     0.9354169024
   90      H      -9.7743465707    -1.3658432571     0.6585071736
   91      H      -8.6838966405    -1.7327199088     2.0143742361
   92      C      -7.9605581739    -0.1856424635     0.7027355128
   93      H      -8.4302150808     0.5979079089     1.3219242961
   94      H      -6.9205773993    -0.2909435148     1.0763989380
   95      H       5.7722177419    -1.5222745294    -3.2131573059
   96      H      -5.0961202337    -2.0206178141     2.2409366561
 ----------------------------------------------------------------
 Nuclear Repulsion Energy =        8376.26313369 hartrees
 There are      206 alpha and      201 beta electrons

Z-matrix Print:
$molecule
-3 6
Fe
O  1 1.977341
C  2 1.395737 1 117.868355
C  3 1.545435 2 110.063923 1 139.084681 0
H  4 1.098165 3 111.114920 2 165.126229 0
H  4 1.103120 3 107.704228 2 47.687538 0
C  4 1.523839 3 116.274585 2 -74.050127 0
O  7 1.242068 4 120.279449 3 -149.638928 0
N  7 1.350985 4 117.289053 3 30.373084 0
H  9 1.022410 7 119.095012 4 5.690923 0
C  9 1.460755 7 121.874175 4 -176.034187 0
H  11 1.098198 9 106.878398 7 -170.476301 0
H  11 1.103335 9 109.033865 7 -54.080963 0
C  11 1.536303 9 113.370986 7 67.444805 0
H  14 1.099962 11 107.338791 9 -55.981267 0
H  14 1.102969 11 108.637372 9 -171.192770 0
C  14 1.535934 11 114.463791 9 66.852894 0
H  17 1.101959 14 109.636191 11 -35.246423 0
H  17 1.106008 14 109.432036 11 -151.095582 0
C  17 1.530513 14 114.297126 11 87.328207 0
H  20 1.102717 17 110.296154 14 -56.282145 0
H  20 1.111043 17 108.579747 14 -171.443056 0
N  20 1.465200 17 111.477548 14 63.571860 0
H  23 1.023637 20 108.599136 17 58.339337 0
C  23 1.465955 20 114.621705 17 -179.693497 0
H  25 1.101198 23 107.159637 20 53.910243 0
H  25 1.102734 23 107.595713 20 167.538821 0
C  3 1.554847 2 110.261143 1 18.168873 0
O  28 1.243002 3 119.708813 2 171.630082 0
O  28 1.287958 3 114.972127 2 -8.353726 0
C  25 1.554877 23 117.077045 20 -69.748225 0
H  31 1.103226 25 110.091489 23 -109.401568 0
H  31 1.104582 25 109.071147 23 6.551060 0
C  31 1.536687 25 114.494571 23 128.024305 0
H  34 1.099008 31 111.303802 25 55.799929 0
H  34 1.102302 31 109.994323 25 175.269095 0
N  34 1.458690 31 110.945596 25 -63.326501 0
H  37 1.015040 34 113.984036 31 -47.740327 0
C  37 1.375779 34 121.259689 31 96.077297 0
O  39 1.242154 37 121.446082 34 24.383215 0
C  39 1.484484 37 115.217222 34 -150.823191 0
C  41 1.401507 39 116.620951 37 149.922322 0
H  42 1.091053 41 118.590442 39 11.935028 0
C  42 1.400405 41 120.537274 39 -162.791691 0
H  44 1.093794 42 120.702317 41 175.977396 0
C  44 1.405750 42 120.506097 41 -0.008854 0
O  46 1.316472 44 124.408438 42 172.889779 0
C  41 1.418110 39 122.899748 37 -17.584446 0
H  48 1.093757 41 121.111154 39 -15.778903 0
C  48 1.396101 41 121.025157 39 163.215993 0
O  50 1.325879 48 124.692334 41 -179.908291 0
C  3 1.560176 2 110.312578 1 -99.779643 0
H  52 1.097303 3 110.439914 2 176.944637 0
H  52 1.101518 3 107.023832 2 58.536785 0
C  52 1.522531 3 112.844297 2 -61.920057 0
O  55 1.239330 52 122.336228 3 -123.091298 0
N  55 1.357874 52 113.812546 3 56.368755 0
H  57 1.031313 55 111.679659 52 -16.078169 0
C  57 1.460042 55 122.254132 52 -163.917419 0
H  59 1.101270 57 106.748980 55 139.045737 0
H  59 1.103497 57 108.550971 55 23.173649 0
C  59 1.532592 57 115.479756 55 -99.934911 0
H  62 1.102350 59 109.732706 57 -56.659840 0
H  62 1.107057 59 106.750797 57 -171.265178 0
C  62 1.531268 59 114.940649 57 68.624175 0
H  65 1.104008 62 110.224264 59 -70.722431 0
H  65 1.104083 62 108.986210 59 44.966041 0
C  65 1.538389 62 112.931900 59 165.012263 0
H  68 1.104436 65 109.187031 62 -170.045191 0
H  68 1.106037 65 107.964766 62 -54.776813 0
N  68 1.465208 65 117.730821 62 67.306112 0
H  71 1.023785 68 109.348343 65 -52.475771 0
C  71 1.463732 68 113.758464 65 68.939151 0
H  73 1.103596 71 107.646061 68 46.113012 0
H  73 1.110078 71 113.274714 68 -70.853609 0
C  73 1.531298 71 112.054777 68 165.084664 0
H  76 1.103900 73 109.368052 71 -59.291367 0
H  76 1.104538 73 108.478971 71 -175.973266 0
C  76 1.536559 73 114.370727 71 62.254768 0
H  79 1.097766 76 110.796479 73 -64.741883 0
H  79 1.101130 76 109.822874 73 176.436251 0
N  79 1.455998 76 112.302004 73 54.745214 0
H  82 1.013874 79 116.602455 76 62.480196 0
C  82 1.367313 79 121.952487 76 -93.393072 0
O  84 1.248506 82 120.915107 79 -22.470987 0
C  84 1.481764 82 117.053664 79 156.816452 0
C  86 1.404555 84 121.722990 82 -27.436744 0
H  87 1.091886 86 120.655694 84 3.099902 0
C  87 1.401060 86 120.508175 84 -173.188450 0
H  89 1.093792 87 120.533846 86 177.649422 0
C  89 1.405424 87 120.756556 86 0.141752 0
O  91 1.316847 89 124.205543 87 176.700461 0
C  86 1.417461 84 118.747562 82 158.695871 0
H  93 1.092239 86 119.200183 84 -4.439632 0
C  93 1.395751 86 121.257378 84 174.042361 0
O  95 1.326573 93 124.846249 86 -179.362792 0
$end

 -----------------------------------------------------------------------
                  END OF GEOMETRY OPTIMIZER USING LIBOPT3               
 -----------------------------------------------------------------------
 Total job time:  91220.97s(wall), 1518508.84s(cpu) 
 Wed Dec 20 09:27:54 2023

        *************************************************************
        *                                                           *
        *  Thank you very much for using Q-Chem.  Have a nice day.  *
        *                                                           *
        *************************************************************


