
Running Job 1 of 1 C_FePB2_ccL_3sextet_camb3lyo_augccpVDZ_pcmH2O_tddft100_4.in
qchem C_FePB2_ccL_3sextet_camb3lyo_augccpVDZ_pcmH2O_tddft100_4.in_1027790.0 /data/scratch/C_FePB2_ccL_3sextet_camb3lyo_augccpVDZ_pcmH2O_tddft100_420230912152413/ 0
/opt/qchem/6.0.1/exe/qcprog.exe_s C_FePB2_ccL_3sextet_camb3lyo_augccpVDZ_pcmH2O_tddft100_4.in_1027790.0 /data/scratch/C_FePB2_ccL_3sextet_camb3lyo_augccpVDZ_pcmH2O_tddft100_420230912152413/
                  Welcome to Q-Chem
     A Quantum Leap Into The Future Of Chemistry


 Q-Chem 6.0, Q-Chem, Inc., Pleasanton, CA (2022)

 E. Epifanovsky,  A. T. B. Gilbert,  Xintian Feng,  Joonho Lee,  Yuezhi Mao,  
 N. Mardirossian,  P. Pokhilko,  A. White,  M. Wormit,  M. P. Coons,  
 A. L. Dempwolff,  Zhengting Gan,  D. Hait,  P. R. Horn,  L. D. Jacobson,  
 I. Kaliman,  J. Kussmann,  A. W. Lange,  Ka Un Lao,  D. S. Levine,  Jie Liu,  
 S. C. McKenzie,  A. F. Morrison,  K. Nanda,  F. Plasser,  D. R. Rehn,  
 M. L. Vidal,  Zhi-Qiang You,  Ying Zhu,  B. Alam,  B. Albrecht,  
 A. Aldossary,  E. Alguire,  J. H. Andersen,  V. Athavale,  D. Barton,  
 K. Begam,  A. Behn,  N. Bellonzi,  Y. A. Bernard,  E. J. Berquist,  
 H. Burton,  A. Carreras,  K. Carter-Fenk,  Romit Chakraborty,  
 Chandrima Chakravarty,  Junhan Chen,  A. D. Chien,  K. D. Closser,  
 V. Cofer-Shabica,  L. Cunha,  S. Dasgupta,  Jia Deng,  M. de Wergifosse,  
 M. Diedenhofen,  Hainam Do,  S. Ehlert,  Po-Tung Fang,  S. Fatehi,  
 Qingguo Feng,  T. Friedhoff,  B. Ganoe,  J. Gayvert,  Qinghui Ge,  
 G. Gidofalvi,  M. Goldey,  J. Gomes,  C. Gonzalez-Espinoza,  S. Gulania,  
 A. Gunina,  J. A. Gyamfi,  M. W. D. Hanson-Heine,  P. H. P. Harbach,  
 A. W. Hauser,  M. F. Herbst,  M. Hernandez Vera,  M. Hodecker,  
 Z. C. Holden,  S. Houck,  Xunkun Huang,  Kerwin Hui,  B. C. Huynh,  
 K. Ikeda,  M. Ivanov,  Hyunjun Ji,  Zuxin Jin,  Hanjie Jiang,  B. Kaduk,  
 S. Kaehler,  R. Kang,  K. Khistyaev,  Jaehoon Kim,  Yongbin Kim,  
 P. Klunzinger,  Z. Koczor-Benda,  Joong Hoon Koh,  D. Kosenkov,  
 Saikiran Kotaru,  L. Koulias,  T. Kowalczyk,  C. M. Krauter,  K. Kue,  
 A. Kunitsa,  T. Kus,  A. Landau,  K. V. Lawler,  D. Lefrancois,  S. Lehtola,  
 Rain Li,  Shaozhi Li,  Yi-Pei Li,  Jiashu Liang,  M. Liebenthal,  
 Hung-Hsuan Lin,  You-Sheng Lin,  Fenglai Liu,  Kuan-Yu Liu,  
 M. Loipersberger,  A. Luenser,  C. Malbon,  A. Manjanath,  P. Manohar,  
 E. Mansoor,  S. F. Manzer,  Shan-Ping Mao,  A. V. Marenich,  T. Markovich,  
 S. Mason,  F. Matz,  S. A. Maurer,  P. F. McLaughlin,  M. F. S. J. Menger,  
 J.-M. Mewes,  S. A. Mewes,  P. Morgante,  Mohammad Mostafanejad,  
 J. W. Mullinax,  K. J. Oosterbaan,  G. Paran,  V. Parravicini,  
 Alexander C. Paul,  Suranjan K. Paul,  F. Pavosevic,  Zheng Pei,  S. Prager,  
 E. I. Proynov,  E. Ramos,  B. Rana,  A. E. Rask,  A. Rettig,  R. M. Richard,  
 F. Rob,  E. Rossomme,  T. Scheele,  M. Scheurer,  M. Schneider,  
 P. E. Schneider,  N. Sergueev,  S. M. Sharada,  Hengyuan Shen,  
 W. Skomorowski,  D. W. Small,  C. J. Stein,  Yingli Su,  Yu-Chuan Su,  
 E. J. Sundstrom,  Zhen Tao,  J. Thirman,  Hung-Yi Tsai,  T. Tsuchimochi,  
 N. M. Tubman,  C. Utku,  S. P. Veccham,  O. Vydrov,  J. Wenzel,  
 Jonathan Wong,  J. Witte,  A. Yamada,  Chou-Hsun Yang,  Kun Yao,  
 S. Yeganeh,  S. R. Yost,  A. Zech,  F. Zeller,  Igor Ying Zhang,  
 Xing Zhang,  Yu Zhang,  D. Zuev,  A. Aspuru-Guzik,  A. T. Bell,  
 N. A. Besley,  K. B. Bravaya,  B. R. Brooks,  D. Casanova,  Jeng-Da Chai,  
 Hsing-Ta Chen,  S. Coriani,  C. J. Cramer,  A. E. DePrince, III,  
 R. A. DiStasio Jr.,  A. Dreuw,  B. D. Dunietz,  T. R. Furlani,  
 W. A. Goddard III,  S. Grimme,  S. Hammes-Schiffer,  T. Head-Gordon,  
 W. J. Hehre,  Chao-Ping Hsu,  T.-C. Jagau,  Yousung Jung,  A. Klamt,  
 Jing Kong,  D. S. Lambrecht,  Xiangyuan Li,  WanZhen Liang,  N. J. Mayhall,  
 C. W. McCurdy,  J. B. Neaton,  T. Neudecker,  C. Ochsenfeld,  
 J. A. Parkhill,  R. Peverati,  V. A. Rassolov,  Haisheng Ren,  Yihan Shao,  
 L. V. Slipchenko,  R. P. Steele,  J. E. Subotnik,  A. J. W. Thom,  
 A. Tkatchenko,  D. G. Truhlar,  T. Van Voorhis,  Fan Wang,  
 T. A. Wesolowski,  K. B. Whaley,  H. L. Woodcock III,  P. M. Zimmerman,  
 S. Faraji,  P. M. W. Gill,  M. Head-Gordon,  J. M. Herbert,  A. I. Krylov

 Contributors to earlier versions of Q-Chem not listed above: 
 R. D. Adamson,  B. Austin,  R. Baer,  J. Baker,  G. J. O. Beran,  
 K. Brandhorst,  S. T. Brown,  E. F. C. Byrd,  Arup K. Chakraborty,  
 G. K. L. Chan,  Chun-Min Chang,  Yunqing Chen,  C.-L. Cheng,  
 Siu Hung Chien,  D. M. Chipman,  D. L. Crittenden,  H. Dachsel,  
 R. J. Doerksen,  A. D. Dutoi,  R. G. Edgar,  J. Fosso-Tande,  
 L. Fusti-Molnar,  D. Ghosh,  A. Ghysels,  A. Golubeva-Zadorozhnaya,  
 J. Gonthier,  M. S. Gordon,  S. R. Gwaltney,  G. Hawkins,  J. E. Herr,  
 A. Heyden,  S. Hirata,  E. G. Hohenstein,  G. Kedziora,  F. J. Keil,  
 C. Kelley,  Jihan Kim,  R. A. King,  R. Z. Khaliullin,  P. P. Korambath,  
 W. Kurlancheek,  A. Laurent,  A. M. Lee,  M. S. Lee,  S. V. Levchenko,  
 Ching Yeh Lin,  D. Liotard,  E. Livshits,  R. C. Lochan,  I. Lotan,  
 L. A. Martinez-Martinez,  P. E. Maslen,  N. Nair,  D. P. O'Neill,  
 D. Neuhauser,  E. Neuscamman,  C. M. Oana,  R. Olivares-Amaya,  R. Olson,  
 T. M. Perrine,  B. Peters,  P. A. Pieniazek,  A. Prociuk,  Y. M. Rhee,  
 J. Ritchie,  M. A. Rohrdanz,  E. Rosta,  N. J. Russ,  H. F. Schaefer III,  
 M. W. Schmidt,  N. E. Schultz,  S. Sharma,  N. Shenvi,  C. D. Sherrill,  
 A. C. Simmonett,  A. Sodt,  T. Stein,  D. Stuck,  K. S. Thanthiriwatte,  
 V. Vanovschi,  L. Vogt,  Tao Wang,  A. Warshel,  M. A. Watson,  
 C. F. Williams,  Q. Wu,  X. Xu,  Jun Yang,  W. Zhang,  Yan Zhao

   Please cite Q-Chem as follows:
  "Software for the frontiers of quantum chemistry:
   An overview of developments in the Q-Chem 5 package"
   J. Chem. Phys. 155, 084801 (2021)
   https://doi.org/10.1063/5.0055522 (open access)

 Q-Chem 6.0.2 for Intel X86 EM64T Linux

 Parts of Q-Chem use Armadillo 9.900.5 (Nocturnal Misbehaviour).
 http://arma.sourceforge.net/

 Q-Chem begins on Tue Sep 12 15:24:14 2023  

 Host: 
0

     Scratch files written to /data/scratch/C_FePB2_ccL_3sextet_camb3lyo_augccpVDZ_pcmH2O_tddft100_420230912152413//
 Dec722 |scratch|qcdevops|jenkins|workspace|build_RNUM 8907   
 Processing $rem in /opt/qchem/6.0.1/config/preferences:
 Processing $rem in /home/sgardner/.qchemrc:
 Symmetry turned off for PCM/SM12/SMD calculation

 Checking the input file for inconsistencies... 	...done.

--------------------------------------------------------------
User input:
--------------------------------------------------------------
$molecule
-3 6
C    3.0648120   -1.7466328   -0.8828284
C    4.2853226   -2.3038317   -0.4960795
C    5.4728688   -2.0482903   -1.2292248
C    5.4014101   -1.2942122   -2.4083939
C    4.1938117   -0.7058733   -2.8042614
C    3.0344522   -0.8587795   -2.0230894
H    4.2999545   -2.9280208    0.4021378
O    1.9021853   -0.2273429   -2.2434483
C    6.8273970   -2.3036105   -0.6789065
O    7.8552424   -2.3103988   -1.3763918
N    6.8872034   -2.4384756    0.6893557
H    6.0218617   -2.2206701    1.1730546
C    8.0881796   -2.0800313    1.4364598
H    8.2443207   -2.8025079    2.2542567
H    8.9372969   -2.1657471    0.7440696
C    7.9761423   -0.6573748    2.0049827
H    8.8385754   -0.4740681    2.6679695
H    7.0791023   -0.6101661    2.6476064
C    7.8833553    0.4594521    0.9276777
H    7.8063029    0.0052288   -0.0727892
H    8.8230997    1.0361539    0.9299991
N    6.7756433    1.4117615    1.0573487
H    6.7781063    1.7923820    2.0077292
C    4.3441272    1.8779675    0.9609362
H    3.3682281    1.3742966    0.8731418
H    4.3939282    2.2678552    1.9946112
C    5.4538685    0.8384384    0.7896434
H    5.2213238   -0.0336264    1.4375556
H    5.4581915    0.4481145   -0.2413355
C    4.4117182    3.0467670   -0.0328847
H    3.9797150    3.9544759    0.4133221
H    5.4693699    3.2695064   -0.2523669
C    3.6767960    2.7946270   -1.3590884
H    4.0173374    1.8556205   -1.8160998
H    3.9114288    3.6153723   -2.0585586
N    2.2282213    2.6921543   -1.2084851
H    1.7624994    1.8062151   -1.4195161
C    1.4693735    3.7455262   -0.8331079
O    1.9448859    4.8818552   -0.6687075
C   -0.0164365    3.4913206   -0.6074696
H   -0.5610516    3.7141546   -1.5383068
H   -0.3328965    4.2350355    0.1355109
C   -1.8528353    2.0012398    0.3863347
H   -2.0084220    0.9819658    0.7676942
H   -1.9656906    2.7175646    1.2127535
C   -2.8780772    2.3369773   -0.6762707
O   -3.1041567    3.5075618   -1.0219649
N   -3.5158071    1.2750923   -1.2279396
C   -4.4806142    1.3905542   -2.3113432
H   -3.2520699    0.3426554   -0.9192700
C   -5.9164736    1.0914932   -1.8699220
H   -4.1863971    0.6944890   -3.1129210
H   -4.4021340    2.4169586   -2.6974491
C   -6.4585677    2.0766653   -0.8337541
H   -6.5619326    1.1034104   -2.7672231
H   -5.9581853    0.0651160   -1.4741689
C   -7.8344065    1.6803197   -0.2708740
H   -6.5377938    3.0827195   -1.2839570
H   -5.7352480    2.1696727   -0.0064364
H   -8.1908008    2.4886092    0.3937864
H   -8.5581761    1.6145024   -1.1028084
C   -5.8413978   -2.2979734   -0.0895154
C   -4.2473305   -2.3637681   -1.9826586
O   -6.8305611   -2.2058365   -0.8481126
C   -4.4535545   -2.2195316   -0.6037715
C   -2.9769369   -2.1869658   -2.5441962
C   -3.3472788   -1.8942490    0.2251764
C   -1.8742885   -1.8387739   -1.7395435
C   -2.0703217   -1.7082858   -0.3111092
H   -3.4681736   -1.7213974    1.2979309
O   -0.6677779   -1.5868452   -2.1927120
C   -0.3910870    2.0611844   -0.1596477
O   -0.2413489    1.1713073   -1.2187817
C    0.5183142    1.6488744    1.0367970
O    1.0605933    0.4851834    0.9284097
O    0.6651326    2.4201095    2.0005366
H    4.1481865   -0.0641077   -3.6889406
O    1.9160958   -1.9323969   -0.2490936
H   -2.8275082   -2.2851338   -3.6233880
O   -1.0087574   -1.3572206    0.3980897
Fe    0.4797400   -0.6059303   -0.7844394
N   -7.9117776    0.4206387    0.4762472
H   -7.7023364   -0.3595675   -0.1526063
N   -6.0046315   -2.4542421    1.2556363
H   -5.1735414   -2.4971702    1.8334797
C   -7.2698579   -2.1944463    1.9249614
H   -8.0574620   -2.3078887    1.1691502
H   -7.4338021   -2.9626171    2.6970089
C   -7.3313040   -0.7987804    2.5668429
H   -8.3470035   -0.6588616    2.9760887
H   -6.6279200   -0.7623173    3.4173383
C   -6.9976179    0.3554434    1.6182019
H   -7.0885318    1.3029035    2.1774578
H   -5.9317425    0.2778775    1.3188724
H   -5.1055462   -2.5944093   -2.6151172
H    6.3213390   -1.1043559   -2.9637034
$end

$rem
BASIS  =  gen
CIS_N_ROOTS  =  100
EXCHANGE  =  CAM-B3LYP
GUI  =  2
JOB_TYPE  =  SP
NTO_PAIRS  =  2
SCF_CONVERGENCE  =  8
SOLVENT_METHOD  =  PCM
UNRESTRICTED  =  1
BASIS GEN
PURECART 11
MEM_TOTAL  =  30000
$end

$pcm
THEORY  CPCM
$end

$solvent
DIELECTRIC  78.39
$end

$van_der_waals
26   2.44
$end

!----------------------------------------------------------------------
! Basis Set Exchange
! Basis set: aug-cc-pVDZ
!----------------------------------------------------------------------

$basis
H     0
S   4   1.00
1.301000D+01           1.968500D-02
1.962000D+00           1.379770D-01
4.446000D-01           4.781480D-01
1.220000D-01           5.012400D-01
S   1   1.00
1.220000D-01           1.000000D+00
S   1   1.00
0.0297400              1.0000000
P   1   1.00
7.270000D-01           1.0000000
P   1   1.00
0.1410000              1.0000000
****
C     0
S   9   1.00
6.665000D+03           6.920000D-04
1.000000D+03           5.329000D-03
2.280000D+02           2.707700D-02
6.471000D+01           1.017180D-01
2.106000D+01           2.747400D-01
7.495000D+00           4.485640D-01
2.797000D+00           2.850740D-01
5.215000D-01           1.520400D-02
1.596000D-01          -3.191000D-03
S   9   1.00
6.665000D+03          -1.460000D-04
1.000000D+03          -1.154000D-03
2.280000D+02          -5.725000D-03
6.471000D+01          -2.331200D-02
2.106000D+01          -6.395500D-02
7.495000D+00          -1.499810D-01
2.797000D+00          -1.272620D-01
5.215000D-01           5.445290D-01
1.596000D-01           5.804960D-01
S   1   1.00
1.596000D-01           1.000000D+00
S   1   1.00
0.0469000              1.0000000
P   4   1.00
9.439000D+00           3.810900D-02
2.002000D+00           2.094800D-01
5.456000D-01           5.085570D-01
1.517000D-01           4.688420D-01
P   1   1.00
1.517000D-01           1.000000D+00
P   1   1.00
0.0404100              1.0000000
D   1   1.00
5.500000D-01           1.0000000
D   1   1.00
0.1510000              1.0000000
****
N     0
S   9   1.00
9.046000D+03           7.000000D-04
1.357000D+03           5.389000D-03
3.093000D+02           2.740600D-02
8.773000D+01           1.032070D-01
2.856000D+01           2.787230D-01
1.021000D+01           4.485400D-01
3.838000D+00           2.782380D-01
7.466000D-01           1.544000D-02
2.248000D-01          -2.864000D-03
S   9   1.00
9.046000D+03          -1.530000D-04
1.357000D+03          -1.208000D-03
3.093000D+02          -5.992000D-03
8.773000D+01          -2.454400D-02
2.856000D+01          -6.745900D-02
1.021000D+01          -1.580780D-01
3.838000D+00          -1.218310D-01
7.466000D-01           5.490030D-01
2.248000D-01           5.788150D-01
S   1   1.00
2.248000D-01           1.000000D+00
S   1   1.00
0.0612400              1.0000000
P   4   1.00
1.355000D+01           3.991900D-02
2.917000D+00           2.171690D-01
7.973000D-01           5.103190D-01
2.185000D-01           4.622140D-01
P   1   1.00
2.185000D-01           1.000000D+00
P   1   1.00
0.0561100              1.0000000
D   1   1.00
8.170000D-01           1.0000000
D   1   1.00
0.2300000              1.0000000
****
O     0
S   9   1.00
1.172000D+04           7.100000D-04
1.759000D+03           5.470000D-03
4.008000D+02           2.783700D-02
1.137000D+02           1.048000D-01
3.703000D+01           2.830620D-01
1.327000D+01           4.487190D-01
5.025000D+00           2.709520D-01
1.013000D+00           1.545800D-02
3.023000D-01          -2.585000D-03
S   9   1.00
1.172000D+04          -1.600000D-04
1.759000D+03          -1.263000D-03
4.008000D+02          -6.267000D-03
1.137000D+02          -2.571600D-02
3.703000D+01          -7.092400D-02
1.327000D+01          -1.654110D-01
5.025000D+00          -1.169550D-01
1.013000D+00           5.573680D-01
3.023000D-01           5.727590D-01
S   1   1.00
3.023000D-01           1.000000D+00
S   1   1.00
0.0789600              1.0000000
P   4   1.00
1.770000D+01           4.301800D-02
3.854000D+00           2.289130D-01
1.046000D+00           5.087280D-01
2.753000D-01           4.605310D-01
P   1   1.00
2.753000D-01           1.000000D+00
P   1   1.00
0.0685600              1.0000000
D   1   1.00
1.185000D+00           1.0000000
D   1   1.00
0.3320000              1.0000000
****
Fe     0
S   20   1.00
4.316265D+06           8.048803D-06
6.463424D+05           6.258306D-05
1.470897D+05           3.290239D-04
4.166152D+04           1.387355D-03
1.359077D+04           5.023256D-03
4.905750D+03           1.610140D-02
1.912746D+03           4.590034D-02
7.926043D+02           1.136154D-01
3.448065D+02           2.283869D-01
1.558999D+02           3.221159D-01
7.223091D+01           2.383661D-01
3.272506D+01           7.404667D-02
1.566762D+01           9.214197D-02
7.503483D+00           9.339790D-02
3.312223D+00           1.573965D-02
1.558471D+00          -4.186682D-04
6.839140D-01           5.376318D-05
1.467570D-01          -3.816654D-05
7.058300D-02           4.319603D-05
3.144900D-02          -3.401019D-06
S   20   1.00
4.316265D+06          -4.155954D-06
6.463424D+05          -3.231401D-05
1.470897D+05          -1.699525D-04
4.166152D+04          -7.171369D-04
1.359077D+04          -2.603625D-03
4.905750D+03          -8.399109D-03
1.912746D+03          -2.434109D-02
7.926043D+02          -6.251948D-02
3.448065D+02          -1.365929D-01
1.558999D+02          -2.312707D-01
7.223091D+01          -2.383734D-01
3.272506D+01           3.123837D-02
1.566762D+01           5.086818D-01
7.503483D+00           4.987695D-01
3.312223D+00           9.033552D-02
1.558471D+00          -6.005337D-03
6.839140D-01           2.312454D-04
1.467570D-01          -5.643680D-04
7.058300D-02           4.992260D-04
3.144900D-02          -1.015293D-04
S   20   1.00
4.316265D+06           9.532178D-07
6.463424D+05           7.414605D-06
1.470897D+05           3.898393D-05
4.166152D+04           1.647152D-04
1.359077D+04           5.985980D-04
4.905750D+03           1.942390D-03
1.912746D+03           5.687237D-03
7.926043D+02           1.501329D-02
3.448065D+02           3.452455D-02
1.558999D+02           6.495820D-02
7.223091D+01           7.716194D-02
3.272506D+01          -1.873411D-02
1.566762D+01          -3.009185D-01
7.503483D+00          -4.554661D-01
3.312223D+00           1.286463D-01
1.558471D+00           7.183316D-01
6.839140D-01           4.051743D-01
1.467570D-01           2.168227D-02
7.058300D-02          -8.343566D-03
3.144900D-02           3.658979D-03
S   20   1.00
4.316265D+06          -2.063008D-07
6.463424D+05          -1.604169D-06
1.470897D+05          -8.438437D-06
4.166152D+04          -3.563151D-05
1.359077D+04          -1.295998D-04
4.905750D+03          -4.201534D-04
1.912746D+03          -1.231954D-03
7.926043D+02          -3.248922D-03
3.448065D+02          -7.493717D-03
1.558999D+02          -1.410102D-02
7.223091D+01          -1.691600D-02
3.272506D+01           4.218996D-03
1.566762D+01           6.833810D-02
7.503483D+00           1.098201D-01
3.312223D+00          -4.009005D-02
1.558471D+00          -2.174739D-01
6.839140D-01          -2.465135D-01
1.467570D-01           2.731435D-01
7.058300D-02           5.748321D-01
3.144900D-02           3.012713D-01
S   20   1.00
4.316265D+06          -4.009367D-07
6.463424D+05          -3.189255D-06
1.470897D+05          -1.623079D-05
4.166152D+04          -7.157920D-05
1.359077D+04          -2.463958D-04
4.905750D+03          -8.544907D-04
1.912746D+03          -2.307593D-03
7.926043D+02          -6.728292D-03
3.448065D+02          -1.366165D-02
1.558999D+02          -3.062240D-02
7.223091D+01          -2.631137D-02
3.272506D+01          -9.760183D-03
1.566762D+01           1.801906D-01
7.503483D+00           1.529634D-01
3.312223D+00           5.505413D-02
1.558471D+00          -9.551364D-01
6.839140D-01           2.586813D-01
1.467570D-01           1.834049D+00
7.058300D-02          -9.333240D-01
3.144900D-02          -6.981605D-01
S   1   1.00
3.144900D-02           1.000000D+00
S   1   1.00
1.401000D-02           1.000000D+00
P   16   1.00
1.774569D+04           4.100000D-05
4.200721D+03           3.690000D-04
1.364429D+03           2.129000D-03
5.220806D+02           9.369000D-03
2.214595D+02           3.309700D-02
1.009096D+02           9.443100D-02
4.840115D+01           2.080770D-01
2.398536D+01           3.323330D-01
1.218250D+01           3.329870D-01
6.242298D+00           1.568430D-01
3.110944D+00           2.154900D-02
1.509958D+00          -2.095000D-03
7.108450D-01          -1.739000D-03
2.731900D-01          -3.000000D-04
1.042330D-01           2.900000D-05
3.829100D-02          -1.100000D-05
P   16   1.00
1.774569D+04          -1.500000D-05
4.200721D+03          -1.300000D-04
1.364429D+03          -7.510000D-04
5.220806D+02          -3.329000D-03
2.214595D+02          -1.191200D-02
1.009096D+02          -3.493300D-02
4.840115D+01          -7.998900D-02
2.398536D+01          -1.346360D-01
1.218250D+01          -1.385980D-01
6.242298D+00           3.027800D-02
3.110944D+00           3.332160D-01
1.509958D+00           4.561530D-01
7.108450D-01           2.850510D-01
2.731900D-01           4.614400D-02
1.042330D-01          -3.249000D-03
3.829100D-02           1.357000D-03
P   16   1.00
1.774569D+04           5.000000D-06
4.200721D+03           4.200000D-05
1.364429D+03           2.410000D-04
5.220806D+02           1.085000D-03
2.214595D+02           3.831000D-03
1.009096D+02           1.142300D-02
4.840115D+01           2.579200D-02
2.398536D+01           4.481800D-02
1.218250D+01           4.459800D-02
6.242298D+00          -1.117700D-02
3.110944D+00          -1.381340D-01
1.509958D+00          -1.882850D-01
7.108450D-01          -1.073990D-01
2.731900D-01           4.448630D-01
1.042330D-01           6.402390D-01
3.829100D-02           6.445700D-02
P   16   1.00
1.774569D+04           3.000000D-06
4.200721D+03           2.900000D-05
1.364429D+03           1.650000D-04
5.220806D+02           7.340000D-04
2.214595D+02           2.626000D-03
1.009096D+02           7.725000D-03
4.840115D+01           1.773300D-02
2.398536D+01           3.005500D-02
1.218250D+01           3.109400D-02
6.242298D+00          -1.004800D-02
3.110944D+00          -8.830600D-02
1.509958D+00          -1.298240D-01
7.108450D-01          -7.693700D-02
2.731900D-01           2.126610D-01
1.042330D-01           5.730610D-01
3.829100D-02           3.696510D-01
P   1   1.00
3.829100D-02           1.000000D+00
P   1   1.00
1.407000D-02           1.000000D+00
D   8   1.00
1.133440D+02           3.530000D-03
3.364140D+01           2.578400D-02
1.233100D+01           9.911900D-02
4.994780D+00           2.390730D-01
2.072800D+00           3.571990D-01
8.307530D-01           3.621880D-01
3.091780D-01           2.364610D-01
1.001300D-01           6.011800D-02
D   8   1.00
1.133440D+02          -3.890000D-03
3.364140D+01          -2.844200D-02
1.233100D+01          -1.124290D-01
4.994780D+00          -2.742570D-01
2.072800D+00          -3.155460D-01
8.307530D-01           5.710900D-02
3.091780D-01           5.636040D-01
1.001300D-01           3.846370D-01
D   1   1.00
1.001300D-01           1.000000D+00
D   1   1.00
3.243000D-02           1.000000D+00
F   2   1.00
3.224300D+00           4.222490D-01
7.758000D-01           7.714680D-01
F   1   1.00
2.749000D-01           1.000000D+00
****
$end


--------------------------------------------------------------
 ----------------------------------------------------------------
             Standard Nuclear Orientation (Angstroms)
    I     Atom           X                Y                Z
 ----------------------------------------------------------------
    1      C       3.0648120000    -1.7466328000    -0.8828284000
    2      C       4.2853226000    -2.3038317000    -0.4960795000
    3      C       5.4728688000    -2.0482903000    -1.2292248000
    4      C       5.4014101000    -1.2942122000    -2.4083939000
    5      C       4.1938117000    -0.7058733000    -2.8042614000
    6      C       3.0344522000    -0.8587795000    -2.0230894000
    7      H       4.2999545000    -2.9280208000     0.4021378000
    8      O       1.9021853000    -0.2273429000    -2.2434483000
    9      C       6.8273970000    -2.3036105000    -0.6789065000
   10      O       7.8552424000    -2.3103988000    -1.3763918000
   11      N       6.8872034000    -2.4384756000     0.6893557000
   12      H       6.0218617000    -2.2206701000     1.1730546000
   13      C       8.0881796000    -2.0800313000     1.4364598000
   14      H       8.2443207000    -2.8025079000     2.2542567000
   15      H       8.9372969000    -2.1657471000     0.7440696000
   16      C       7.9761423000    -0.6573748000     2.0049827000
   17      H       8.8385754000    -0.4740681000     2.6679695000
   18      H       7.0791023000    -0.6101661000     2.6476064000
   19      C       7.8833553000     0.4594521000     0.9276777000
   20      H       7.8063029000     0.0052288000    -0.0727892000
   21      H       8.8230997000     1.0361539000     0.9299991000
   22      N       6.7756433000     1.4117615000     1.0573487000
   23      H       6.7781063000     1.7923820000     2.0077292000
   24      C       4.3441272000     1.8779675000     0.9609362000
   25      H       3.3682281000     1.3742966000     0.8731418000
   26      H       4.3939282000     2.2678552000     1.9946112000
   27      C       5.4538685000     0.8384384000     0.7896434000
   28      H       5.2213238000    -0.0336264000     1.4375556000
   29      H       5.4581915000     0.4481145000    -0.2413355000
   30      C       4.4117182000     3.0467670000    -0.0328847000
   31      H       3.9797150000     3.9544759000     0.4133221000
   32      H       5.4693699000     3.2695064000    -0.2523669000
   33      C       3.6767960000     2.7946270000    -1.3590884000
   34      H       4.0173374000     1.8556205000    -1.8160998000
   35      H       3.9114288000     3.6153723000    -2.0585586000
   36      N       2.2282213000     2.6921543000    -1.2084851000
   37      H       1.7624994000     1.8062151000    -1.4195161000
   38      C       1.4693735000     3.7455262000    -0.8331079000
   39      O       1.9448859000     4.8818552000    -0.6687075000
   40      C      -0.0164365000     3.4913206000    -0.6074696000
   41      H      -0.5610516000     3.7141546000    -1.5383068000
   42      H      -0.3328965000     4.2350355000     0.1355109000
   43      C      -1.8528353000     2.0012398000     0.3863347000
   44      H      -2.0084220000     0.9819658000     0.7676942000
   45      H      -1.9656906000     2.7175646000     1.2127535000
   46      C      -2.8780772000     2.3369773000    -0.6762707000
   47      O      -3.1041567000     3.5075618000    -1.0219649000
   48      N      -3.5158071000     1.2750923000    -1.2279396000
   49      C      -4.4806142000     1.3905542000    -2.3113432000
   50      H      -3.2520699000     0.3426554000    -0.9192700000
   51      C      -5.9164736000     1.0914932000    -1.8699220000
   52      H      -4.1863971000     0.6944890000    -3.1129210000
   53      H      -4.4021340000     2.4169586000    -2.6974491000
   54      C      -6.4585677000     2.0766653000    -0.8337541000
   55      H      -6.5619326000     1.1034104000    -2.7672231000
   56      H      -5.9581853000     0.0651160000    -1.4741689000
   57      C      -7.8344065000     1.6803197000    -0.2708740000
   58      H      -6.5377938000     3.0827195000    -1.2839570000
   59      H      -5.7352480000     2.1696727000    -0.0064364000
   60      H      -8.1908008000     2.4886092000     0.3937864000
   61      H      -8.5581761000     1.6145024000    -1.1028084000
   62      C      -5.8413978000    -2.2979734000    -0.0895154000
   63      C      -4.2473305000    -2.3637681000    -1.9826586000
   64      O      -6.8305611000    -2.2058365000    -0.8481126000
   65      C      -4.4535545000    -2.2195316000    -0.6037715000
   66      C      -2.9769369000    -2.1869658000    -2.5441962000
   67      C      -3.3472788000    -1.8942490000     0.2251764000
   68      C      -1.8742885000    -1.8387739000    -1.7395435000
   69      C      -2.0703217000    -1.7082858000    -0.3111092000
   70      H      -3.4681736000    -1.7213974000     1.2979309000
   71      O      -0.6677779000    -1.5868452000    -2.1927120000
   72      C      -0.3910870000     2.0611844000    -0.1596477000
   73      O      -0.2413489000     1.1713073000    -1.2187817000
   74      C       0.5183142000     1.6488744000     1.0367970000
   75      O       1.0605933000     0.4851834000     0.9284097000
   76      O       0.6651326000     2.4201095000     2.0005366000
   77      H       4.1481865000    -0.0641077000    -3.6889406000
   78      O       1.9160958000    -1.9323969000    -0.2490936000
   79      H      -2.8275082000    -2.2851338000    -3.6233880000
   80      O      -1.0087574000    -1.3572206000     0.3980897000
   81      Fe      0.4797400000    -0.6059303000    -0.7844394000
   82      N      -7.9117776000     0.4206387000     0.4762472000
   83      H      -7.7023364000    -0.3595675000    -0.1526063000
   84      N      -6.0046315000    -2.4542421000     1.2556363000
   85      H      -5.1735414000    -2.4971702000     1.8334797000
   86      C      -7.2698579000    -2.1944463000     1.9249614000
   87      H      -8.0574620000    -2.3078887000     1.1691502000
   88      H      -7.4338021000    -2.9626171000     2.6970089000
   89      C      -7.3313040000    -0.7987804000     2.5668429000
   90      H      -8.3470035000    -0.6588616000     2.9760887000
   91      H      -6.6279200000    -0.7623173000     3.4173383000
   92      C      -6.9976179000     0.3554434000     1.6182019000
   93      H      -7.0885318000     1.3029035000     2.1774578000
   94      H      -5.9317425000     0.2778775000     1.3188724000
   95      H      -5.1055462000    -2.5944093000    -2.6151172000
   96      H       6.3213390000    -1.1043559000    -2.9637034000
 ----------------------------------------------------------------
 Nuclear Repulsion Energy =        8406.91243132 hartrees
 There are      206 alpha and      201 beta electrons
 Requested basis set is non-standard
 There are 698 shells and 1628 basis functions

 Total QAlloc Memory Limit  30000 MB
 Mega-Array Size       188 MB
 MEM_STATIC part       192 MB

 Using C-PCM dielectric factor f(eps) = (eps-1)/eps = 0.987243
No default van der Waals radius is available for Z = 26
	Found R = 2.4400 A in the $van_der_waals section
 Discretize the solute cavity surface with Lebedev spheres
	Using 110 Lebedev grid points for each H atom
	Using 194 Lebedev grid points for other atoms
	Atomic van der Waals radii (Bondi set) will be scaled by 1.20
 Using smooth SwiG surface discretization
 Remove points where switching function is < 1.0e-08
 Keep 5507 surface tesserae and discard 9421 interior tesserae
 Molecular Surface Area = 662.096 Angst**2

 A cutoff of  1.0D-12 yielded 182927 shell pairs
 There are    935105 function pairs (   1058172 Cartesian)
 Smallest overlap matrix eigenvalue = 2.82E-07
 Linear dependence detected in AO basis
 Tighter screening thresholds may be required for diffuse basis sets
 Use S2THRESH > 14 and THRESH = 14 in case of SCF convergence issues
 Number of orthogonalized atomic orbitals = 1621
 Maximum deviation from orthogonality = 1.635E-10

 Scale SEOQF with 1.000000e-02/1.000000e-01/1.000000e-01

 Standard Electronic Orientation quadrupole field applied
 Nucleus-field energy     =     0.0000000662 hartrees
 ================ Generating on-the-fly SAD Guess ================
 Attempting to make child job directory: /data/scratch/C_FePB2_ccL_3sextet_camb3lyo_augccpVDZ_pcmH2O_tddft100_420230912152413//Frg1/
 Attempting to make child job directory: /data/scratch/C_FePB2_ccL_3sextet_camb3lyo_augccpVDZ_pcmH2O_tddft100_420230912152413//Frg2/
 Attempting to make child job directory: /data/scratch/C_FePB2_ccL_3sextet_camb3lyo_augccpVDZ_pcmH2O_tddft100_420230912152413//Frg3/
 Attempting to make child job directory: /data/scratch/C_FePB2_ccL_3sextet_camb3lyo_augccpVDZ_pcmH2O_tddft100_420230912152413//Frg4/
 Attempting to make child job directory: /data/scratch/C_FePB2_ccL_3sextet_camb3lyo_augccpVDZ_pcmH2O_tddft100_420230912152413//Frg5/
 Creating input file /data/scratch/C_FePB2_ccL_3sextet_camb3lyo_augccpVDZ_pcmH2O_tddft100_420230912152413/Frg1.input
 using default PutDataFrgm: nothing
 calling putenv with: QCSCRATCH=/data/scratch/C_FePB2_ccL_3sextet_camb3lyo_augccpVDZ_pcmH2O_tddft100_420230912152413/ 
 Spawning Job For Fragment 0
 Done Job For Fragment 0
 calling putenv with: QCSCRATCH=/data/scratch 
 calling putenv with: QCTHREADS=20 
 Creating input file /data/scratch/C_FePB2_ccL_3sextet_camb3lyo_augccpVDZ_pcmH2O_tddft100_420230912152413/Frg2.input
 using default PutDataFrgm: nothing
 calling putenv with: QCSCRATCH=/data/scratch/C_FePB2_ccL_3sextet_camb3lyo_augccpVDZ_pcmH2O_tddft100_420230912152413/ 
 Spawning Job For Fragment 1
 Done Job For Fragment 1
 calling putenv with: QCSCRATCH=/data/scratch 
 calling putenv with: QCTHREADS=20 
 Creating input file /data/scratch/C_FePB2_ccL_3sextet_camb3lyo_augccpVDZ_pcmH2O_tddft100_420230912152413/Frg3.input
 using default PutDataFrgm: nothing
 calling putenv with: QCSCRATCH=/data/scratch/C_FePB2_ccL_3sextet_camb3lyo_augccpVDZ_pcmH2O_tddft100_420230912152413/ 
 Spawning Job For Fragment 2
 Done Job For Fragment 2
 calling putenv with: QCSCRATCH=/data/scratch 
 calling putenv with: QCTHREADS=20 
 Creating input file /data/scratch/C_FePB2_ccL_3sextet_camb3lyo_augccpVDZ_pcmH2O_tddft100_420230912152413/Frg4.input
 using default PutDataFrgm: nothing
 calling putenv with: QCSCRATCH=/data/scratch/C_FePB2_ccL_3sextet_camb3lyo_augccpVDZ_pcmH2O_tddft100_420230912152413/ 
 Spawning Job For Fragment 3
 Done Job For Fragment 3
 calling putenv with: QCSCRATCH=/data/scratch 
 calling putenv with: QCTHREADS=20 
 Creating input file /data/scratch/C_FePB2_ccL_3sextet_camb3lyo_augccpVDZ_pcmH2O_tddft100_420230912152413/Frg5.input
 using default PutDataFrgm: nothing
 calling putenv with: QCSCRATCH=/data/scratch/C_FePB2_ccL_3sextet_camb3lyo_augccpVDZ_pcmH2O_tddft100_420230912152413/ 
 Spawning Job For Fragment 4
 Done Job For Fragment 4
 calling putenv with: QCSCRATCH=/data/scratch 
 calling putenv with: QCTHREADS=20 
 Time for running child jobs:  CPU 0.03 s  wall 91.00 s
 ============= Method Specific SAD Guess Constructed =============
 Guess from on-the-fly superposition of atomic densities
 Warning: Energy on first SCF cycle will be non-variational

 -----------------------------------------------------------------------
  General SCF calculation program by
  Eric Jon Sundstrom, Paul Horn, Yuezhi Mao, Dmitri Zuev, Alec White,
  David Stuck, Shaama M.S., Shane Yost, Joonho Lee, David Small,
  Daniel Levine, Susi Lehtola, Hugh Burton, Evgeny Epifanovsky,
  Bang C. Huynh
 -----------------------------------------------------------------------
 Exchange:     0.1900 Hartree-Fock + 0.3500 B88 + 0.4600 muB88 + LR-HF
 Correlation:  0.1900 VWN5 + 0.8100 LYP
 Using SG-1 standard quadrature grid
 using 20 threads for integral computing
 -------------------------------------------------------
 OpenMP Integral computing Module                
 Release: version 1.0, May 2013, Q-Chem Inc. Pittsburgh 
 -------------------------------------------------------
 C-PCM solvent model [f = (eps-1)/eps], solve by matrix inversion
 A unrestricted SCF calculation will be
 performed using DIIS
 SCF converges when DIIS error is below 1.0e-08
 ---------------------------------------
  Cycle       Energy         DIIS error
 ---------------------------------------
    1   -3770.9973526188      8.95e-03  
    2   -3740.4432842948      1.03e-03  
    3   -3739.4612523331      1.67e-03  
    4   -3741.5728977264      5.22e-04  
    5   -3741.7790927048      1.24e-04  
    6   -3741.7952868869      7.31e-05  
    7   -3741.8020001249      2.02e-05  
    8   -3741.8029061602      1.27e-05  
    9   -3741.8032045799      5.20e-06  
   10   -3741.8032712348      1.80e-06  
   11   -3741.8032837815      9.53e-07  
   12   -3741.8032879647      4.54e-07  
   13   -3741.8032892107      2.58e-07  
   14   -3741.8032896897      1.58e-07  
   15   -3741.8032898544      1.00e-07  
   16   -3741.8032899370      5.59e-08  
   17   -3741.8032899696      3.78e-08  
   18   -3741.8032899767      2.46e-08  
   19   -3741.8032899818      1.19e-08  
   20   -3741.8032899764      6.54e-09  Convergence criterion met
 ---------------------------------------
 SCF time:   CPU 588381.83s  wall 34430.00s 
<S^2> =          8.756967845

************** Final PCM Free Energy Summary **************
 G_electrostatic  =      -0.51278979 hartree =    -321.78045048 kcal/mol
 G_cavitation     =       0.00000000 hartree =       0.00000000 kcal/mol
 G_dispersion     =       0.00000000 hartree =       0.00000000 kcal/mol
 G_repulsion      =       0.00000000 hartree =       0.00000000 kcal/mol
 --------------------------------------------------
 Non-electrostatic Free Energy =       0.00000000 hartree =       0.00000000 kcal/mol
 Total                         =      -0.51278979 hartree =    -321.78045048 kcal/mol
 --------------------------------------------------
 SCF Energy (H0 + V/2)                       =   -3741.80328998 
 Solute Internal Energy (H0)                 =   -3741.29050019 
 Total Free Energy (H0 + V/2 + non-elec)     =   -3741.80328998 hartree
                                             = -2348017.00307918 kcal/mol
***********************************************************

 SCF   energy in the final basis set =    -3741.8032899764
 Total energy in the final basis set =    -3741.8032899764
 
 MAX_CIS_SUBSPACE fits in available memory
 Direct TDDFT/TDA calculation will be performed
 Exchange:     0.1900 Hartree-Fock + 0.3500 B88 + 0.4600 muB88 + LR-HF
 Correlation:  0.1900 VWN5 + 0.8100 LYP
 Using SG-1 standard quadrature grid
 Adding PCM contribution to the XC response (LR-PCM)
 CIS energy converged when residual is below 10e- 6
 ---------------------------------------------------
 Iter    Rts Conv    Rts Left    Ttl Dev     Max Dev
 ---------------------------------------------------
   1         0         100      0.004142    0.000195
   2         0         100      0.002342    0.000062
   3         0         100      0.002539    0.000087
   4         0         100      0.003181    0.000091
   5         5          95      0.002797    0.000091
   6        11          89      0.002003    0.000053
   7        17          83      0.001108    0.000044
   8        26          74      0.000556    0.000032
   9        49          51      0.000311    0.000032
  10        71          29      0.000103    0.000014
  11        93           7      0.000037    0.000005
  12        99           1      0.000022    0.000001
  13       100           0      0.000020    0.000001    Roots Converged
 ---------------------------------------------------
 
 ---------------------------------------------------
         TDDFT/TDA Excitation Energies              
 ---------------------------------------------------

 Excited state   1: excitation energy (eV) =    2.4819
 Total energy for state  1:                 -3741.71208020 au
    <S**2>     :  8.8666
    Trans. Mom.:  0.0072 X  -0.0827 Y   0.0119 Z
    Strength   :     0.0004279939
    D(  200) --> S(    1) amplitude =  0.2257 beta
    D(  201) --> S(    1) amplitude =  0.9054 beta
    D(  201) --> S(    3) amplitude = -0.2303 beta

 Excited state   2: excitation energy (eV) =    2.5486
 Total energy for state  2:                 -3741.70963133 au
    <S**2>     :  8.9946
    Trans. Mom.:  0.8608 X  -0.0058 Y  -0.0734 Z
    Strength   :     0.0466071014
    D(  200) --> S(    1) amplitude =  0.8288 beta
    D(  201) --> S(    1) amplitude = -0.2201 beta
    D(  201) --> S(    2) amplitude = -0.4091 beta

 Excited state   3: excitation energy (eV) =    2.6006
 Total energy for state  3:                 -3741.70772036 au
    <S**2>     :  8.8214
    Trans. Mom.: -0.8988 X   0.1234 Y   0.1116 Z
    Strength   :     0.0532357382
    D(  200) --> S(    1) amplitude =  0.3645 beta
    D(  200) --> S(    2) amplitude = -0.1583 beta
    D(  200) --> S(    3) amplitude = -0.2257 beta
    D(  201) --> S(    2) amplitude =  0.8440 beta

 Excited state   4: excitation energy (eV) =    2.6880
 Total energy for state  4:                 -3741.70450671 au
    <S**2>     :  8.9432
    Trans. Mom.: -0.9239 X   0.0580 Y   0.0589 Z
    Strength   :     0.0566644231
    D(  200) --> S(    2) amplitude =  0.8088 beta
    D(  200) --> S(    3) amplitude = -0.4250 beta
    D(  201) --> S(    3) amplitude =  0.2016 beta

 Excited state   5: excitation energy (eV) =    2.7164
 Total energy for state  5:                 -3741.70346361 au
    <S**2>     :  8.9559
    Trans. Mom.: -0.3448 X  -0.1740 Y   0.0211 Z
    Strength   :     0.0099573321
    D(  200) --> S(    3) amplitude =  0.3249 beta
    D(  201) --> S(    1) amplitude =  0.1851 beta
    D(  201) --> S(    3) amplitude =  0.8620 beta

 Excited state   6: excitation energy (eV) =    2.8787
 Total energy for state  6:                 -3741.69750080 au
    <S**2>     :  9.2487
    Trans. Mom.:  0.0906 X   0.4000 Y   0.0865 Z
    Strength   :     0.0123904944
    S(    4) --> V(    2) amplitude = -0.2329 alpha
    D(  200) --> S(    2) amplitude =  0.3180 beta
    D(  200) --> S(    3) amplitude =  0.7168 beta
    D(  201) --> S(    2) amplitude =  0.2000 beta
    D(  201) --> S(    3) amplitude = -0.2525 beta

 Excited state   7: excitation energy (eV) =    2.9716
 Total energy for state  7:                 -3741.69408538 au
    <S**2>     : 10.4042
    Trans. Mom.: -0.4253 X   0.0949 Y   0.0058 Z
    Strength   :     0.0138283440
    S(    5) --> V(    3) amplitude =  0.3128 alpha
    S(    5) --> V(    4) amplitude =  0.3105 alpha
    S(    5) --> V(    5) amplitude = -0.2373 alpha
    S(    5) --> V(    6) amplitude = -0.2483 alpha
    S(    5) --> V(    7) amplitude = -0.2095 alpha
    S(    5) --> V(    9) amplitude = -0.1612 alpha
    D(  200) --> V(    2) amplitude = -0.2294 beta
    D(  200) --> V(    3) amplitude = -0.2582 beta
    D(  201) --> S(    5) amplitude =  0.1796 beta
    D(  201) --> V(    2) amplitude = -0.1638 beta
    D(  201) --> V(    3) amplitude = -0.1913 beta
    D(  201) --> V(    6) amplitude = -0.2437 beta
    D(  201) --> V(    7) amplitude = -0.1513 beta

 Excited state   8: excitation energy (eV) =    3.0129
 Total energy for state  8:                 -3741.69256825 au
    <S**2>     :  9.8900
    Trans. Mom.:  0.2392 X   0.3547 Y  -0.0158 Z
    Strength   :     0.0135266224
    S(    4) --> V(    1) amplitude = -0.1573 alpha
    S(    4) --> V(    2) amplitude =  0.3905 alpha
    S(    4) --> V(    4) amplitude = -0.1616 alpha
    S(    4) --> V(    6) amplitude = -0.1723 alpha
    D(  200) --> S(    2) amplitude =  0.3454 beta
    D(  200) --> S(    3) amplitude =  0.2281 beta
    D(  200) --> S(    5) amplitude =  0.2597 beta
    D(  200) --> V(    6) amplitude = -0.1986 beta
    D(  201) --> S(    3) amplitude = -0.1571 beta
    D(  201) --> S(    5) amplitude = -0.1554 beta
    D(  201) --> V(    2) amplitude = -0.2072 beta
    D(  201) --> V(    3) amplitude = -0.2243 beta

 Excited state   9: excitation energy (eV) =    3.5335
 Total energy for state  9:                 -3741.67343567 au
    <S**2>     :  9.8640
    Trans. Mom.: -0.0407 X  -0.0403 Y   0.0569 Z
    Strength   :     0.0005648567
    S(    4) --> V(   18) amplitude = -0.1626 alpha
    S(    4) --> V(   19) amplitude =  0.1502 alpha
    S(    4) --> V(   20) amplitude = -0.2252 alpha
    S(    4) --> V(   23) amplitude = -0.2221 alpha
    S(    4) --> V(   24) amplitude = -0.1783 alpha
    D(  200) --> V(    8) amplitude = -0.1690 beta
    D(  200) --> V(    9) amplitude = -0.2514 beta
    D(  200) --> V(   10) amplitude = -0.1741 beta
    D(  201) --> V(    3) amplitude = -0.1790 beta
    D(  201) --> V(    7) amplitude = -0.1715 beta
    D(  201) --> V(    8) amplitude =  0.1989 beta
    D(  201) --> V(    9) amplitude =  0.3172 beta
    D(  201) --> V(   10) amplitude =  0.2250 beta

 Excited state  10: excitation energy (eV) =    3.5993
 Total energy for state 10:                 -3741.67101897 au
    <S**2>     :  8.8587
    Trans. Mom.:  0.1244 X  -0.0317 Y   0.0174 Z
    Strength   :     0.0014792782
    D(  186) --> S(    1) amplitude =  0.1537 beta
    D(  195) --> S(    1) amplitude = -0.4869 beta
    D(  195) --> S(    2) amplitude = -0.1516 beta
    D(  195) --> S(    3) amplitude =  0.1564 beta
    D(  196) --> S(    1) amplitude = -0.2825 beta
    D(  197) --> S(    1) amplitude =  0.4211 beta
    D(  199) --> S(    1) amplitude =  0.3372 beta

 Excited state  11: excitation energy (eV) =    3.6257
 Total energy for state 11:                 -3741.67004674 au
    <S**2>     : 10.5214
    Trans. Mom.: -0.2921 X   0.0488 Y   0.0385 Z
    Strength   :     0.0079209520
    S(    5) --> V(   19) amplitude =  0.1823 alpha
    S(    5) --> V(   22) amplitude =  0.4119 alpha
    S(    5) --> V(   23) amplitude =  0.2193 alpha
    S(    5) --> V(   24) amplitude = -0.1793 alpha
    S(    5) --> V(   25) amplitude = -0.1832 alpha
    D(  200) --> V(   23) amplitude = -0.1619 beta
    D(  200) --> V(   25) amplitude = -0.1829 beta
    D(  201) --> V(   23) amplitude = -0.2410 beta
    D(  201) --> V(   25) amplitude = -0.2201 beta

 Excited state  12: excitation energy (eV) =    3.6534
 Total energy for state 12:                 -3741.66902832 au
    <S**2>     :  9.4996
    Trans. Mom.:  0.0300 X   0.0468 Y   0.1402 Z
    Strength   :     0.0020370734
    S(    4) --> V(   20) amplitude =  0.1862 alpha
    S(    4) --> V(   23) amplitude =  0.1951 alpha
    S(    4) --> V(   24) amplitude =  0.1518 alpha
    D(  201) --> V(    2) amplitude = -0.1560 beta
    D(  201) --> V(    3) amplitude = -0.1753 beta
    D(  201) --> V(    7) amplitude = -0.2058 beta
    D(  201) --> V(    8) amplitude =  0.1660 beta
    D(  201) --> V(    9) amplitude =  0.4264 beta
    D(  201) --> V(   10) amplitude =  0.3252 beta

 Excited state  13: excitation energy (eV) =    3.6987
 Total energy for state 13:                 -3741.66736689 au
    <S**2>     :  8.8364
    Trans. Mom.:  0.3466 X   0.0045 Y   0.0266 Z
    Strength   :     0.0109541081
    D(  195) --> S(    2) amplitude =  0.3067 beta
    D(  196) --> S(    2) amplitude =  0.1863 beta
    D(  197) --> S(    2) amplitude = -0.2770 beta
    D(  199) --> S(    2) amplitude = -0.2557 beta
    D(  200) --> V(    3) amplitude = -0.1922 beta
    D(  200) --> V(    7) amplitude = -0.1932 beta
    D(  200) --> V(    8) amplitude =  0.1747 beta
    D(  200) --> V(    9) amplitude =  0.3782 beta
    D(  200) --> V(   10) amplitude =  0.2761 beta
    D(  201) --> V(    9) amplitude =  0.2149 beta
    D(  201) --> V(   10) amplitude =  0.1510 beta

 Excited state  14: excitation energy (eV) =    3.7290
 Total energy for state 14:                 -3741.66625175 au
    <S**2>     :  8.8272
    Trans. Mom.:  0.1540 X  -0.1013 Y  -0.0090 Z
    Strength   :     0.0031135422
    D(  195) --> S(    2) amplitude = -0.3703 beta
    D(  196) --> S(    2) amplitude = -0.2252 beta
    D(  197) --> S(    2) amplitude =  0.3330 beta
    D(  199) --> S(    2) amplitude =  0.3155 beta
    D(  200) --> V(    3) amplitude = -0.1551 beta
    D(  200) --> V(    7) amplitude = -0.1677 beta
    D(  200) --> V(    8) amplitude =  0.1597 beta
    D(  200) --> V(    9) amplitude =  0.3554 beta
    D(  200) --> V(   10) amplitude =  0.2651 beta

 Excited state  15: excitation energy (eV) =    3.8205
 Total energy for state 15:                 -3741.66288756 au
    <S**2>     :  8.7861
    Trans. Mom.:  0.1092 X  -0.2411 Y  -0.0534 Z
    Strength   :     0.0068228869
    D(  194) --> S(    1) amplitude =  0.2815 beta
    D(  194) --> S(    2) amplitude =  0.3739 beta
    D(  195) --> S(    3) amplitude = -0.4008 beta
    D(  196) --> S(    3) amplitude = -0.2365 beta
    D(  197) --> S(    3) amplitude =  0.3515 beta
    D(  199) --> S(    3) amplitude =  0.2996 beta
    D(  201) --> V(   14) amplitude =  0.2716 beta

 Excited state  16: excitation energy (eV) =    3.8457
 Total energy for state 16:                 -3741.66196236 au
    <S**2>     :  8.7929
    Trans. Mom.: -0.0634 X   0.0888 Y   0.0119 Z
    Strength   :     0.0011353568
    D(  194) --> S(    1) amplitude = -0.1599 beta
    D(  200) --> V(   12) amplitude = -0.1520 beta
    D(  200) --> V(   14) amplitude =  0.4196 beta
    D(  201) --> V(   11) amplitude = -0.1525 beta
    D(  201) --> V(   12) amplitude = -0.2312 beta
    D(  201) --> V(   13) amplitude = -0.1739 beta
    D(  201) --> V(   14) amplitude =  0.6316 beta

 Excited state  17: excitation energy (eV) =    3.9546
 Total energy for state 17:                 -3741.65796005 au
    <S**2>     :  8.8038
    Trans. Mom.: -0.3595 X  -0.3648 Y   0.0591 Z
    Strength   :     0.0257576489
    D(  179) --> S(    1) amplitude =  0.2358 beta
    D(  194) --> S(    1) amplitude = -0.7586 beta
    D(  195) --> S(    3) amplitude = -0.1510 beta
    D(  198) --> S(    1) amplitude = -0.2044 beta
    D(  200) --> V(   14) amplitude = -0.1839 beta

 Excited state  18: excitation energy (eV) =    4.0060
 Total energy for state 18:                 -3741.65607118 au
    <S**2>     :  8.7908
    Trans. Mom.: -0.0832 X   0.0070 Y  -0.0008 Z
    Strength   :     0.0006838803
    D(  179) --> S(    3) amplitude =  0.3081 beta
    D(  194) --> S(    3) amplitude = -0.7939 beta
    D(  198) --> S(    3) amplitude = -0.1641 beta
    D(  200) --> V(   14) amplitude =  0.1976 beta

 Excited state  19: excitation energy (eV) =    4.0362
 Total energy for state 19:                 -3741.65496400 au
    <S**2>     :  8.9761
    Trans. Mom.:  1.1105 X  -0.0277 Y  -0.0499 Z
    Strength   :     0.1222666798
    D(  194) --> S(    2) amplitude =  0.4452 beta
    D(  194) --> S(    3) amplitude =  0.2024 beta
    D(  199) --> S(    2) amplitude = -0.2612 beta
    D(  200) --> V(   14) amplitude =  0.4265 beta
    D(  201) --> V(   14) amplitude = -0.2509 beta

 Excited state  20: excitation energy (eV) =    4.0752
 Total energy for state 20:                 -3741.65353031 au
    <S**2>     :  9.6512
    Trans. Mom.: -0.3540 X   0.1433 Y  -0.0697 Z
    Strength   :     0.0150468111
    S(    3) --> V(    3) amplitude = -0.1689 alpha
    S(    3) --> V(    4) amplitude = -0.1703 alpha
    D(  195) --> S(    2) amplitude =  0.2411 beta
    D(  199) --> S(    2) amplitude =  0.3551 beta
    D(  199) --> V(    2) amplitude =  0.1527 beta
    D(  199) --> V(    3) amplitude =  0.1756 beta
    D(  200) --> V(   14) amplitude =  0.3341 beta
    D(  201) --> V(   14) amplitude = -0.2117 beta

 Excited state  21: excitation energy (eV) =    4.1119
 Total energy for state 21:                 -3741.65217952 au
    <S**2>     :  9.3225
    Trans. Mom.:  0.3451 X   0.3154 Y  -0.2830 Z
    Strength   :     0.0300877984
    S(    4) --> V(    2) amplitude =  0.1616 alpha
    D(  194) --> S(    1) amplitude = -0.1524 beta
    D(  194) --> S(    2) amplitude =  0.3880 beta
    D(  194) --> S(    3) amplitude = -0.1796 beta
    D(  198) --> S(    1) amplitude =  0.2856 beta
    D(  198) --> S(    2) amplitude =  0.2618 beta
    D(  200) --> V(   14) amplitude = -0.2591 beta
    D(  201) --> V(   14) amplitude =  0.1729 beta

 Excited state  22: excitation energy (eV) =    4.1337
 Total energy for state 22:                 -3741.65137830 au
    <S**2>     :  9.4314
    Trans. Mom.:  1.0692 X  -0.3006 Y  -0.0342 Z
    Strength   :     0.1250534442
    S(    1) --> V(    2) amplitude = -0.1862 alpha
    S(    2) --> V(    2) amplitude = -0.1650 alpha
    D(  194) --> S(    2) amplitude = -0.4567 beta
    D(  195) --> S(    3) amplitude = -0.1677 beta
    D(  198) --> S(    1) amplitude =  0.2876 beta
    D(  198) --> S(    5) amplitude = -0.1711 beta
    D(  199) --> S(    1) amplitude =  0.1976 beta
    D(  199) --> S(    3) amplitude =  0.1673 beta
    D(  200) --> V(   14) amplitude =  0.1512 beta

 Excited state  23: excitation energy (eV) =    4.1531
 Total energy for state 23:                 -3741.65066457 au
    <S**2>     :  9.2584
    Trans. Mom.:  1.6791 X  -0.4167 Y  -0.0133 Z
    Strength   :     0.3045592126
    S(    4) --> V(    2) amplitude =  0.2119 alpha
    S(    5) --> V(    3) amplitude = -0.1775 alpha
    S(    5) --> V(    4) amplitude = -0.2226 alpha
    D(  198) --> S(    1) amplitude = -0.1777 beta
    D(  198) --> S(    2) amplitude = -0.1669 beta
    D(  200) --> V(    2) amplitude = -0.2052 beta
    D(  200) --> V(    3) amplitude = -0.1991 beta
    D(  200) --> V(    9) amplitude = -0.1593 beta
    D(  201) --> S(    5) amplitude =  0.2902 beta
    D(  201) --> V(    6) amplitude = -0.2212 beta

 Excited state  24: excitation energy (eV) =    4.1851
 Total energy for state 24:                 -3741.64948979 au
    <S**2>     :  8.9767
    Trans. Mom.:  0.1543 X   0.4545 Y  -0.8439 Z
    Strength   :     0.0966351656
    S(    4) --> V(    1) amplitude = -0.1653 alpha
    S(    4) --> V(    2) amplitude =  0.2972 alpha
    S(    5) --> V(    3) amplitude =  0.1727 alpha
    S(    5) --> V(    4) amplitude =  0.2105 alpha
    D(  198) --> S(    2) amplitude = -0.1680 beta
    D(  200) --> S(    5) amplitude = -0.2830 beta
    D(  200) --> V(    6) amplitude =  0.1879 beta
    D(  201) --> V(    2) amplitude =  0.2718 beta
    D(  201) --> V(    3) amplitude =  0.2650 beta
    D(  201) --> V(    9) amplitude =  0.1621 beta

 Excited state  25: excitation energy (eV) =    4.3076
 Total energy for state 25:                 -3741.64498934 au
    <S**2>     :  8.8636
    Trans. Mom.:  0.4602 X  -0.1028 Y   0.1003 Z
    Strength   :     0.0245248889
    D(  184) --> S(    1) amplitude = -0.2302 beta
    D(  190) --> S(    1) amplitude =  0.2987 beta
    D(  191) --> S(    1) amplitude =  0.4819 beta
    D(  191) --> S(    2) amplitude = -0.1617 beta
    D(  193) --> S(    1) amplitude = -0.1558 beta
    D(  195) --> S(    1) amplitude =  0.2488 beta
    D(  198) --> S(    1) amplitude =  0.1821 beta
    D(  198) --> S(    2) amplitude = -0.1563 beta
    D(  199) --> S(    1) amplitude =  0.3850 beta

 Excited state  26: excitation energy (eV) =    4.3492
 Total energy for state 26:                 -3741.64346060 au
    <S**2>     :  8.9692
    Trans. Mom.:  0.3694 X   0.0467 Y   0.0762 Z
    Strength   :     0.0153869619
    D(  179) --> S(    2) amplitude = -0.1722 beta
    D(  181) --> S(    2) amplitude = -0.1782 beta
    D(  182) --> S(    2) amplitude = -0.1622 beta
    D(  184) --> S(    2) amplitude = -0.2012 beta
    D(  187) --> S(    2) amplitude = -0.1905 beta
    D(  190) --> S(    2) amplitude =  0.1941 beta
    D(  191) --> S(    2) amplitude =  0.4484 beta
    D(  195) --> S(    2) amplitude =  0.2078 beta
    D(  198) --> S(    2) amplitude =  0.3324 beta
    D(  199) --> S(    1) amplitude =  0.1812 beta
    D(  199) --> S(    2) amplitude =  0.2704 beta

 Excited state  27: excitation energy (eV) =    4.3802
 Total energy for state 27:                 -3741.64232129 au
    <S**2>     :  8.9216
    Trans. Mom.:  0.1700 X  -0.0675 Y   0.0248 Z
    Strength   :     0.0036572325
    D(  182) --> S(    1) amplitude = -0.1836 beta
    D(  185) --> S(    1) amplitude = -0.1737 beta
    D(  190) --> S(    1) amplitude = -0.2133 beta
    D(  191) --> S(    1) amplitude = -0.3325 beta
    D(  198) --> S(    1) amplitude =  0.4474 beta
    D(  198) --> S(    2) amplitude = -0.1829 beta
    D(  198) --> S(    3) amplitude = -0.2311 beta
    D(  199) --> S(    1) amplitude =  0.2970 beta

 Excited state  28: excitation energy (eV) =    4.4312
 Total energy for state 28:                 -3741.64044795 au
    <S**2>     :  8.9551
    Trans. Mom.:  0.4354 X  -0.1565 Y   0.1229 Z
    Strength   :     0.0248775606
    D(  191) --> S(    1) amplitude = -0.2419 beta
    D(  191) --> S(    2) amplitude = -0.2084 beta
    D(  191) --> S(    3) amplitude =  0.1948 beta
    D(  195) --> S(    1) amplitude =  0.2581 beta
    D(  198) --> S(    1) amplitude = -0.3470 beta
    D(  199) --> S(    1) amplitude =  0.4727 beta

 Excited state  29: excitation energy (eV) =    4.4468
 Total energy for state 29:                 -3741.63987463 au
    <S**2>     :  9.1847
    Trans. Mom.:  0.1838 X  -0.0522 Y   0.0096 Z
    Strength   :     0.0039871970
    S(    3) --> V(    3) amplitude =  0.1675 alpha
    S(    3) --> V(    4) amplitude =  0.1545 alpha
    D(  184) --> S(    2) amplitude =  0.1506 beta
    D(  191) --> S(    2) amplitude = -0.2894 beta
    D(  195) --> S(    2) amplitude =  0.1726 beta
    D(  199) --> S(    2) amplitude =  0.3991 beta
    D(  201) --> S(    4) amplitude =  0.2691 beta
    D(  201) --> V(    1) amplitude = -0.1502 beta

 Excited state  30: excitation energy (eV) =    4.4729
 Total energy for state 30:                 -3741.63891491 au
    <S**2>     :  9.5696
    Trans. Mom.: -0.2019 X  -0.0989 Y   0.1838 Z
    Strength   :     0.0092408160
    S(    5) --> V(    1) amplitude =  0.1958 alpha
    S(    5) --> V(    4) amplitude = -0.1790 alpha
    D(  190) --> S(    3) amplitude =  0.1716 beta
    D(  191) --> S(    3) amplitude =  0.2512 beta
    D(  195) --> S(    3) amplitude =  0.1692 beta
    D(  198) --> S(    2) amplitude = -0.2335 beta
    D(  198) --> S(    3) amplitude =  0.2857 beta
    D(  199) --> S(    3) amplitude =  0.3474 beta
    D(  201) --> S(    4) amplitude = -0.2910 beta

 Excited state  31: excitation energy (eV) =    4.4761
 Total energy for state 31:                 -3741.63879617 au
    <S**2>     :  9.9000
    Trans. Mom.:  0.0329 X   0.1034 Y  -0.2312 Z
    Strength   :     0.0071548813
    S(    4) --> V(    1) amplitude = -0.1743 alpha
    S(    5) --> V(    1) amplitude =  0.4265 alpha
    S(    5) --> V(    4) amplitude = -0.2861 alpha
    S(    5) --> V(    7) amplitude = -0.1814 alpha
    S(    5) --> V(    9) amplitude = -0.2057 alpha
    S(    5) --> V(   10) amplitude = -0.1924 alpha
    D(  191) --> S(    3) amplitude = -0.1928 beta
    D(  198) --> S(    2) amplitude =  0.1686 beta
    D(  199) --> S(    3) amplitude = -0.2392 beta
    D(  201) --> S(    4) amplitude = -0.2083 beta

 Excited state  32: excitation energy (eV) =    4.4876
 Total energy for state 32:                 -3741.63837550 au
    <S**2>     :  9.4901
    Trans. Mom.: -0.5549 X   0.0996 Y  -0.0440 Z
    Strength   :     0.0351555999
    S(    4) --> V(    1) amplitude =  0.2331 alpha
    S(    5) --> V(    1) amplitude =  0.3001 alpha
    S(    5) --> V(    4) amplitude = -0.1796 alpha
    D(  191) --> S(    2) amplitude =  0.2082 beta
    D(  198) --> S(    2) amplitude = -0.2235 beta
    D(  199) --> S(    2) amplitude = -0.2268 beta
    D(  201) --> S(    4) amplitude =  0.3098 beta
    D(  201) --> V(    6) amplitude =  0.1824 beta

 Excited state  33: excitation energy (eV) =    4.4976
 Total energy for state 33:                 -3741.63800804 au
    <S**2>     :  9.3323
    Trans. Mom.:  0.3424 X  -0.0539 Y  -0.1158 Z
    Strength   :     0.0147159273
    S(    4) --> V(    1) amplitude =  0.5449 alpha
    S(    4) --> V(    3) amplitude = -0.2198 alpha
    S(    4) --> V(    6) amplitude = -0.1913 alpha
    S(    4) --> V(    7) amplitude = -0.3015 alpha
    S(    4) --> V(   11) amplitude = -0.1948 alpha
    D(  198) --> S(    2) amplitude =  0.1894 beta
    D(  198) --> S(    3) amplitude =  0.1645 beta
    D(  201) --> S(    4) amplitude = -0.1585 beta

 Excited state  34: excitation energy (eV) =    4.5238
 Total energy for state 34:                 -3741.63704191 au
    <S**2>     :  9.0563
    Trans. Mom.:  0.4802 X   0.2227 Y  -0.0516 Z
    Strength   :     0.0313457388
    D(  186) --> S(    2) amplitude = -0.1761 beta
    D(  189) --> S(    2) amplitude = -0.1844 beta
    D(  190) --> S(    3) amplitude =  0.2591 beta
    D(  191) --> S(    3) amplitude =  0.2686 beta
    D(  198) --> S(    2) amplitude =  0.3885 beta
    D(  198) --> S(    3) amplitude = -0.2793 beta
    D(  199) --> S(    3) amplitude =  0.2313 beta

 Excited state  35: excitation energy (eV) =    4.5293
 Total energy for state 35:                 -3741.63684244 au
    <S**2>     :  9.1245
    Trans. Mom.: -0.1887 X  -0.0274 Y  -0.1163 Z
    Strength   :     0.0055379702
    S(    1) --> V(    2) amplitude =  0.1861 alpha
    S(    2) --> V(    2) amplitude =  0.1724 alpha
    S(    4) --> V(    1) amplitude = -0.1902 alpha
    D(  198) --> S(    2) amplitude =  0.2712 beta
    D(  198) --> S(    3) amplitude =  0.4028 beta
    D(  201) --> S(    4) amplitude =  0.2286 beta

 Excited state  36: excitation energy (eV) =    4.5667
 Total energy for state 36:                 -3741.63546820 au
    <S**2>     :  9.3603
    Trans. Mom.:  0.0368 X   0.1231 Y  -0.1735 Z
    Strength   :     0.0052142343
    D(  200) --> S(    4) amplitude =  0.5118 beta
    D(  200) --> S(    5) amplitude =  0.2032 beta
    D(  200) --> V(    6) amplitude =  0.2431 beta
    D(  201) --> V(    1) amplitude = -0.2777 beta
    D(  201) --> V(    7) amplitude =  0.1680 beta
    D(  201) --> V(    8) amplitude =  0.1907 beta

 Excited state  37: excitation energy (eV) =    4.5810
 Total energy for state 37:                 -3741.63494024 au
    <S**2>     :  8.8778
    Trans. Mom.:  0.1409 X   0.0053 Y   0.1032 Z
    Strength   :     0.0034279477
    D(  181) --> S(    2) amplitude =  0.1865 beta
    D(  182) --> S(    2) amplitude =  0.1518 beta
    D(  183) --> S(    1) amplitude =  0.1757 beta
    D(  185) --> S(    1) amplitude = -0.2788 beta
    D(  185) --> S(    2) amplitude =  0.1726 beta
    D(  186) --> S(    1) amplitude = -0.3884 beta
    D(  187) --> S(    1) amplitude =  0.1785 beta
    D(  189) --> S(    1) amplitude = -0.2974 beta
    D(  190) --> S(    1) amplitude =  0.2720 beta
    D(  198) --> S(    1) amplitude = -0.1629 beta
    D(  198) --> S(    3) amplitude = -0.1546 beta
    D(  199) --> S(    3) amplitude =  0.2428 beta

 Excited state  38: excitation energy (eV) =    4.6116
 Total energy for state 38:                 -3741.63381838 au
    <S**2>     :  8.9698
    Trans. Mom.:  0.2972 X   0.0402 Y  -0.1377 Z
    Strength   :     0.0123023956
    D(  181) --> S(    1) amplitude =  0.1642 beta
    D(  182) --> S(    1) amplitude =  0.1745 beta
    D(  185) --> S(    1) amplitude =  0.3070 beta
    D(  186) --> S(    1) amplitude =  0.2205 beta
    D(  189) --> S(    1) amplitude =  0.1820 beta
    D(  191) --> S(    3) amplitude = -0.1518 beta
    D(  195) --> S(    3) amplitude =  0.1573 beta
    D(  198) --> S(    1) amplitude =  0.1767 beta
    D(  198) --> S(    3) amplitude = -0.2014 beta
    D(  199) --> S(    3) amplitude =  0.2598 beta
    D(  200) --> S(    4) amplitude =  0.2109 beta

 Excited state  39: excitation energy (eV) =    4.6360
 Total energy for state 39:                 -3741.63292126 au
    <S**2>     :  8.8017
    Trans. Mom.:  0.0142 X  -0.0231 Y  -0.0761 Z
    Strength   :     0.0007410563
    D(  179) --> S(    2) amplitude = -0.1560 beta
    D(  180) --> S(    2) amplitude = -0.1574 beta
    D(  181) --> S(    1) amplitude = -0.1721 beta
    D(  182) --> S(    1) amplitude = -0.2014 beta
    D(  183) --> S(    2) amplitude = -0.2253 beta
    D(  185) --> S(    2) amplitude =  0.2335 beta
    D(  186) --> S(    2) amplitude =  0.3702 beta
    D(  187) --> S(    1) amplitude = -0.1520 beta
    D(  187) --> S(    2) amplitude = -0.1581 beta
    D(  189) --> S(    2) amplitude =  0.3071 beta
    D(  190) --> S(    2) amplitude = -0.2367 beta
    D(  198) --> S(    1) amplitude = -0.1704 beta
    D(  199) --> S(    3) amplitude =  0.1530 beta

 Excited state  40: excitation energy (eV) =    4.6548
 Total energy for state 40:                 -3741.63222763 au
    <S**2>     :  8.8018
    Trans. Mom.:  0.1451 X   0.1142 Y   0.2097 Z
    Strength   :     0.0089007923
    D(  180) --> S(    2) amplitude =  0.1947 beta
    D(  181) --> S(    2) amplitude = -0.2650 beta
    D(  182) --> S(    2) amplitude = -0.4081 beta
    D(  185) --> S(    2) amplitude = -0.2172 beta
    D(  187) --> S(    2) amplitude = -0.2077 beta
    D(  190) --> S(    2) amplitude = -0.3499 beta
    D(  191) --> S(    3) amplitude = -0.1551 beta
    D(  199) --> S(    3) amplitude =  0.2094 beta

 Excited state  41: excitation energy (eV) =    4.6680
 Total energy for state 41:                 -3741.63174563 au
    <S**2>     :  8.8302
    Trans. Mom.:  0.4485 X   0.0911 Y  -0.0887 Z
    Strength   :     0.0248573041
    D(  179) --> S(    1) amplitude = -0.2486 beta
    D(  179) --> S(    2) amplitude =  0.1670 beta
    D(  180) --> S(    1) amplitude = -0.4382 beta
    D(  180) --> S(    2) amplitude =  0.2019 beta
    D(  181) --> S(    1) amplitude = -0.3019 beta
    D(  181) --> S(    2) amplitude =  0.2367 beta
    D(  184) --> S(    1) amplitude =  0.1541 beta
    D(  185) --> S(    2) amplitude =  0.1682 beta
    D(  199) --> S(    3) amplitude =  0.1906 beta

 Excited state  42: excitation energy (eV) =    4.6851
 Total energy for state 42:                 -3741.63111517 au
    <S**2>     :  8.9528
    Trans. Mom.: -0.2174 X  -0.2157 Y   0.2884 Z
    Strength   :     0.0203114857
    D(  180) --> S(    1) amplitude =  0.2960 beta
    D(  181) --> S(    1) amplitude = -0.2948 beta
    D(  182) --> S(    1) amplitude = -0.2665 beta
    D(  185) --> S(    1) amplitude = -0.1793 beta
    D(  186) --> S(    2) amplitude = -0.2057 beta
    D(  190) --> S(    1) amplitude = -0.2089 beta
    D(  190) --> S(    2) amplitude =  0.1905 beta
    D(  190) --> S(    3) amplitude = -0.1774 beta
    D(  191) --> S(    3) amplitude = -0.2383 beta
    D(  198) --> S(    1) amplitude = -0.1734 beta
    D(  199) --> S(    3) amplitude =  0.2094 beta

 Excited state  43: excitation energy (eV) =    4.7382
 Total energy for state 43:                 -3741.62916432 au
    <S**2>     :  9.6686
    Trans. Mom.: -0.3402 X  -0.1193 Y  -0.2000 Z
    Strength   :     0.0197298027
    D(  180) --> S(    1) amplitude = -0.1567 beta
    D(  180) --> S(    3) amplitude =  0.2496 beta
    D(  181) --> S(    2) amplitude = -0.1794 beta
    D(  182) --> S(    3) amplitude = -0.1622 beta
    D(  183) --> S(    3) amplitude =  0.1573 beta
    D(  198) --> S(    2) amplitude = -0.2093 beta
    D(  198) --> V(    3) amplitude = -0.1533 beta

 Excited state  44: excitation energy (eV) =    4.7730
 Total energy for state 44:                 -3741.62788368 au
    <S**2>     :  9.0467
    Trans. Mom.: -0.0388 X  -0.1218 Y   0.5113 Z
    Strength   :     0.0324828778
    S(    5) --> V(   22) amplitude =  0.1827 alpha
    D(  181) --> S(    1) amplitude = -0.1681 beta
    D(  182) --> S(    1) amplitude = -0.1831 beta
    D(  185) --> S(    3) amplitude = -0.1647 beta
    D(  199) --> S(    2) amplitude =  0.1728 beta

 Excited state  45: excitation energy (eV) =    4.7955
 Total energy for state 45:                 -3741.62705862 au
    <S**2>     :  8.9722
    Trans. Mom.: -0.2870 X   0.1394 Y  -0.1036 Z
    Strength   :     0.0132256574
    S(    5) --> V(   22) amplitude = -0.1568 alpha
    D(  180) --> S(    1) amplitude =  0.2388 beta
    D(  181) --> S(    1) amplitude =  0.1932 beta
    D(  195) --> V(    9) amplitude = -0.1797 beta
    D(  195) --> V(   14) amplitude = -0.2133 beta
    D(  197) --> V(    9) amplitude =  0.1547 beta
    D(  197) --> V(   14) amplitude =  0.1848 beta
    D(  198) --> S(    3) amplitude =  0.1618 beta

 Excited state  46: excitation energy (eV) =    4.8033
 Total energy for state 46:                 -3741.62677183 au
    <S**2>     :  8.8389
    Trans. Mom.: -0.2848 X   0.2147 Y   0.2690 Z
    Strength   :     0.0234833967
    D(  180) --> S(    1) amplitude =  0.2728 beta
    D(  180) --> S(    2) amplitude =  0.1610 beta
    D(  195) --> V(    9) amplitude =  0.1768 beta
    D(  195) --> V(   14) amplitude =  0.2099 beta
    D(  197) --> V(    9) amplitude = -0.1503 beta
    D(  197) --> V(   14) amplitude = -0.1739 beta
    D(  198) --> S(    3) amplitude =  0.1817 beta

 Excited state  47: excitation energy (eV) =    4.8203
 Total energy for state 47:                 -3741.62614540 au
    <S**2>     :  9.6846
    Trans. Mom.:  0.0131 X  -0.0030 Y   0.0957 Z
    Strength   :     0.0011037630
    S(    3) --> V(   22) amplitude =  0.2294 alpha
    D(  185) --> S(    3) amplitude =  0.1652 beta
    D(  186) --> S(    3) amplitude =  0.2543 beta
    D(  189) --> S(    3) amplitude =  0.1986 beta
    D(  190) --> S(    3) amplitude = -0.1894 beta
    D(  199) --> S(    1) amplitude =  0.1616 beta
    D(  199) --> S(    3) amplitude =  0.1939 beta
    D(  199) --> V(   23) amplitude = -0.1972 beta
    D(  199) --> V(   25) amplitude = -0.1772 beta

 Excited state  48: excitation energy (eV) =    4.8453
 Total energy for state 48:                 -3741.62522856 au
    <S**2>     :  9.1941
    Trans. Mom.: -0.3731 X   0.0239 Y   0.2941 Z
    Strength   :     0.0268552321
    D(  183) --> S(    3) amplitude = -0.1655 beta
    D(  185) --> S(    3) amplitude =  0.3457 beta
    D(  186) --> S(    3) amplitude =  0.3731 beta
    D(  189) --> S(    3) amplitude =  0.2743 beta
    D(  190) --> S(    3) amplitude = -0.1537 beta
    D(  198) --> S(    3) amplitude =  0.2763 beta

 Excited state  49: excitation energy (eV) =    4.8547
 Total energy for state 49:                 -3741.62488138 au
    <S**2>     : 10.3145
    Trans. Mom.: -0.0628 X  -0.0042 Y  -0.0245 Z
    Strength   :     0.0005433076
    S(    5) --> V(    4) amplitude =  0.3797 alpha
    S(    5) --> V(    5) amplitude =  0.4758 alpha
    S(    5) --> V(    8) amplitude =  0.3678 alpha
    S(    5) --> V(   13) amplitude =  0.1952 alpha
    D(  201) --> V(    2) amplitude = -0.2422 beta
    D(  201) --> V(    3) amplitude =  0.1760 beta

 Excited state  50: excitation energy (eV) =    4.8677
 Total energy for state 50:                 -3741.62440655 au
    <S**2>     :  9.3137
    Trans. Mom.:  0.0530 X  -0.0261 Y   0.0197 Z
    Strength   :     0.0004630446
    S(    5) --> V(    4) amplitude =  0.1891 alpha
    S(    5) --> V(    5) amplitude =  0.2452 alpha
    S(    5) --> V(    8) amplitude =  0.1863 alpha
    D(  200) --> V(    5) amplitude =  0.2234 beta
    D(  201) --> V(    1) amplitude =  0.1606 beta
    D(  201) --> V(    2) amplitude =  0.5029 beta
    D(  201) --> V(    3) amplitude = -0.3624 beta
    D(  201) --> V(   11) amplitude =  0.1636 beta

 Excited state  51: excitation energy (eV) =    4.8869
 Total energy for state 51:                 -3741.62369880 au
    <S**2>     : 10.2392
    Trans. Mom.: -0.1053 X   0.0360 Y   0.1758 Z
    Strength   :     0.0051849142
    D(  192) --> V(    2) amplitude =  0.2896 alpha
    S(    4) --> V(    4) amplitude = -0.2564 alpha
    S(    4) --> V(    5) amplitude = -0.2537 alpha
    S(    4) --> V(   12) amplitude = -0.1508 alpha
    D(  180) --> S(    2) amplitude = -0.2296 beta
    D(  188) --> S(    5) amplitude =  0.2074 beta
    D(  188) --> V(    3) amplitude =  0.1630 beta

 Excited state  52: excitation energy (eV) =    4.8913
 Total energy for state 52:                 -3741.62353974 au
    <S**2>     : 10.2357
    Trans. Mom.: -0.1766 X   0.0818 Y  -0.0379 Z
    Strength   :     0.0047101955
    D(  192) --> V(    2) amplitude =  0.1581 alpha
    S(    4) --> V(    2) amplitude =  0.1543 alpha
    S(    4) --> V(    4) amplitude =  0.3716 alpha
    S(    4) --> V(    5) amplitude =  0.3240 alpha
    S(    4) --> V(    6) amplitude =  0.1645 alpha
    S(    4) --> V(   12) amplitude =  0.2152 alpha

 Excited state  53: excitation energy (eV) =    4.8988
 Total energy for state 53:                 -3741.62326253 au
    <S**2>     : 10.2420
    Trans. Mom.: -0.0678 X  -0.0029 Y   0.1040 Z
    Strength   :     0.0018506850
    D(  194) --> V(    3) amplitude = -0.1634 alpha
    S(    4) --> V(    4) amplitude =  0.2393 alpha
    S(    4) --> V(    5) amplitude =  0.2000 alpha
    D(  190) --> V(    3) amplitude = -0.1584 beta

 Excited state  54: excitation energy (eV) =    4.9119
 Total energy for state 54:                 -3741.62278253 au
    <S**2>     :  9.0297
    Trans. Mom.:  0.1112 X  -0.1241 Y   0.3749 Z
    Strength   :     0.0202540370
    S(    4) --> V(    4) amplitude =  0.1509 alpha
    D(  180) --> S(    1) amplitude = -0.2504 beta
    D(  180) --> S(    2) amplitude = -0.3889 beta
    D(  181) --> S(    1) amplitude =  0.2321 beta
    D(  181) --> S(    2) amplitude = -0.1764 beta
    D(  182) --> S(    2) amplitude =  0.1958 beta
    D(  189) --> S(    1) amplitude = -0.1577 beta
    D(  198) --> S(    2) amplitude =  0.1582 beta

 Excited state  55: excitation energy (eV) =    4.9271
 Total energy for state 55:                 -3741.62222254 au
    <S**2>     :  9.1452
    Trans. Mom.: -0.2842 X   0.3843 Y   0.0532 Z
    Strength   :     0.0279200171
    D(  180) --> S(    2) amplitude = -0.2133 beta
    D(  180) --> S(    3) amplitude =  0.3069 beta
    D(  181) --> S(    1) amplitude = -0.1735 beta
    D(  182) --> S(    3) amplitude = -0.3279 beta
    D(  187) --> S(    3) amplitude = -0.2379 beta
    D(  191) --> S(    3) amplitude =  0.1673 beta
    D(  198) --> S(    3) amplitude = -0.2097 beta
    D(  200) --> V(    2) amplitude = -0.1844 beta
    D(  201) --> V(    5) amplitude = -0.1573 beta

 Excited state  56: excitation energy (eV) =    4.9332
 Total energy for state 56:                 -3741.62199761 au
    <S**2>     :  9.3447
    Trans. Mom.: -0.1655 X   0.1243 Y   0.1486 Z
    Strength   :     0.0078491907
    D(  180) --> S(    2) amplitude = -0.1811 beta
    D(  200) --> V(    1) amplitude =  0.2739 beta
    D(  200) --> V(    2) amplitude =  0.4527 beta
    D(  200) --> V(    3) amplitude = -0.2227 beta
    D(  201) --> S(    5) amplitude =  0.2131 beta
    D(  201) --> V(    5) amplitude =  0.3276 beta
    D(  201) --> V(   12) amplitude =  0.1927 beta

 Excited state  57: excitation energy (eV) =    4.9515
 Total energy for state 57:                 -3741.62132565 au
    <S**2>     :  8.8741
    Trans. Mom.: -0.4870 X  -0.0567 Y  -0.4006 Z
    Strength   :     0.0486332560
    D(  180) --> S(    1) amplitude = -0.3218 beta
    D(  180) --> S(    2) amplitude =  0.2387 beta
    D(  181) --> S(    1) amplitude =  0.2797 beta
    D(  181) --> S(    3) amplitude = -0.2634 beta
    D(  182) --> S(    1) amplitude = -0.3292 beta
    D(  182) --> S(    3) amplitude = -0.1661 beta
    D(  187) --> S(    1) amplitude = -0.3251 beta
    D(  189) --> S(    1) amplitude = -0.1685 beta
    D(  190) --> S(    1) amplitude = -0.1662 beta

 Excited state  58: excitation energy (eV) =    4.9552
 Total energy for state 58:                 -3741.62118969 au
    <S**2>     :  8.7923
    Trans. Mom.: -0.3821 X   0.0906 Y   0.3275 Z
    Strength   :     0.0317382262
    D(  194) --> V(   14) amplitude =  0.1759 beta
    D(  195) --> V(    9) amplitude =  0.1862 beta
    D(  195) --> V(   14) amplitude = -0.3249 beta
    D(  196) --> V(   14) amplitude = -0.1926 beta
    D(  197) --> V(    9) amplitude = -0.1700 beta
    D(  197) --> V(   14) amplitude =  0.2857 beta
    D(  199) --> V(    9) amplitude = -0.1565 beta
    D(  199) --> V(   14) amplitude =  0.2344 beta

 Excited state  59: excitation energy (eV) =    5.0275
 Total energy for state 59:                 -3741.61853276 au
    <S**2>     : 10.0759
    Trans. Mom.: -0.0453 X   0.0192 Y   0.0084 Z
    Strength   :     0.0003067982
    S(    5) --> V(    2) amplitude =  0.3872 alpha
    S(    5) --> V(    3) amplitude =  0.4059 alpha
    S(    5) --> V(    5) amplitude =  0.3040 alpha
    S(    5) --> V(    7) amplitude =  0.3244 alpha
    S(    5) --> V(   12) amplitude =  0.3729 alpha
    S(    5) --> V(   13) amplitude = -0.1884 alpha
    S(    5) --> V(   17) amplitude = -0.1729 alpha
    S(    5) --> V(   18) amplitude =  0.1544 alpha

 Excited state  60: excitation energy (eV) =    5.0413
 Total energy for state 60:                 -3741.61802660 au
    <S**2>     :  9.2772
    Trans. Mom.: -0.1987 X   0.3034 Y  -0.1709 Z
    Strength   :     0.0198514863
    D(  179) --> S(    3) amplitude = -0.2222 beta
    D(  180) --> S(    3) amplitude = -0.4570 beta
    D(  181) --> S(    1) amplitude = -0.1910 beta
    D(  181) --> S(    3) amplitude = -0.3115 beta
    D(  184) --> S(    3) amplitude =  0.2339 beta

 Excited state  61: excitation energy (eV) =    5.0542
 Total energy for state 61:                 -3741.61755211 au
    <S**2>     :  9.3124
    Trans. Mom.:  0.1164 X   0.1694 Y   0.1009 Z
    Strength   :     0.0064917162
    D(  180) --> S(    1) amplitude = -0.1560 beta
    D(  180) --> S(    2) amplitude = -0.4156 beta
    D(  180) --> S(    3) amplitude = -0.1770 beta
    D(  181) --> S(    2) amplitude =  0.3233 beta
    D(  181) --> S(    3) amplitude = -0.1932 beta
    D(  182) --> S(    2) amplitude = -0.1641 beta
    D(  187) --> S(    2) amplitude = -0.2129 beta
    D(  189) --> S(    2) amplitude = -0.2274 beta

 Excited state  62: excitation energy (eV) =    5.0676
 Total energy for state 62:                 -3741.61705941 au
    <S**2>     :  9.8308
    Trans. Mom.: -0.0573 X   0.0878 Y  -0.1300 Z
    Strength   :     0.0034621825
    S(    4) --> V(    4) amplitude =  0.1517 alpha
    S(    4) --> V(    5) amplitude = -0.1758 alpha
    D(  180) --> S(    3) amplitude = -0.1758 beta
    D(  181) --> S(    2) amplitude = -0.2907 beta
    D(  182) --> S(    2) amplitude =  0.2303 beta

 Excited state  63: excitation energy (eV) =    5.0719
 Total energy for state 63:                 -3741.61689987 au
    <S**2>     :  9.7169
    Trans. Mom.:  0.1003 X   0.0177 Y  -0.0097 Z
    Strength   :     0.0013020546
    S(    4) --> V(    4) amplitude = -0.1507 alpha
    S(    4) --> V(    5) amplitude =  0.1549 alpha
    D(  200) --> S(    5) amplitude =  0.2601 beta
    D(  200) --> V(    1) amplitude =  0.1842 beta
    D(  200) --> V(    2) amplitude = -0.1879 beta
    D(  200) --> V(    3) amplitude =  0.2356 beta
    D(  200) --> V(   11) amplitude = -0.1527 beta
    D(  201) --> S(    4) amplitude = -0.1947 beta
    D(  201) --> S(    5) amplitude =  0.3344 beta
    D(  201) --> V(    4) amplitude = -0.1604 beta
    D(  201) --> V(    6) amplitude =  0.1554 beta
    D(  201) --> V(    9) amplitude =  0.1516 beta
    D(  201) --> V(   11) amplitude = -0.1903 beta
    D(  201) --> V(   12) amplitude =  0.2384 beta

 Excited state  64: excitation energy (eV) =    5.0771
 Total energy for state 64:                 -3741.61671160 au
    <S**2>     :  9.8960
    Trans. Mom.: -0.2565 X   0.0187 Y  -0.0242 Z
    Strength   :     0.0082988268
    S(    4) --> V(    3) amplitude =  0.1784 alpha
    S(    4) --> V(    4) amplitude = -0.2602 alpha
    S(    4) --> V(    5) amplitude =  0.2631 alpha
    S(    4) --> V(    7) amplitude = -0.1532 alpha
    S(    4) --> V(    9) amplitude = -0.2000 alpha
    S(    4) --> V(   10) amplitude = -0.1563 alpha
    S(    4) --> V(   13) amplitude =  0.1870 alpha
    D(  181) --> S(    2) amplitude = -0.1680 beta
    D(  200) --> S(    5) amplitude = -0.2036 beta
    D(  201) --> S(    5) amplitude = -0.1869 beta
    D(  201) --> V(    1) amplitude = -0.2287 beta

 Excited state  65: excitation energy (eV) =    5.1071
 Total energy for state 65:                 -3741.61560823 au
    <S**2>     :  9.2135
    Trans. Mom.: -0.2356 X  -0.0336 Y   0.0033 Z
    Strength   :     0.0070870183
    S(    4) --> V(    4) amplitude = -0.1699 alpha
    D(  200) --> V(    1) amplitude = -0.2204 beta
    D(  200) --> V(    3) amplitude = -0.2403 beta
    D(  200) --> V(    4) amplitude = -0.1532 beta
    D(  200) --> V(   12) amplitude =  0.2193 beta
    D(  201) --> S(    4) amplitude =  0.2284 beta
    D(  201) --> V(    1) amplitude =  0.3623 beta
    D(  201) --> V(    3) amplitude =  0.2430 beta
    D(  201) --> V(    5) amplitude =  0.1561 beta
    D(  201) --> V(    7) amplitude = -0.1538 beta
    D(  201) --> V(    8) amplitude = -0.1635 beta

 Excited state  66: excitation energy (eV) =    5.1236
 Total energy for state 66:                 -3741.61500046 au
    <S**2>     : 10.1274
    Trans. Mom.: -0.0954 X   0.0452 Y   0.0247 Z
    Strength   :     0.0014745570
    D(  200) --> V(    1) amplitude = -0.2315 beta
    D(  200) --> V(    4) amplitude = -0.1561 beta
    D(  200) --> V(    7) amplitude =  0.2614 beta
    D(  201) --> S(    4) amplitude = -0.2473 beta
    D(  201) --> S(    5) amplitude =  0.3475 beta
    D(  201) --> V(    4) amplitude =  0.4535 beta
    D(  201) --> V(    5) amplitude = -0.1609 beta
    D(  201) --> V(   13) amplitude =  0.1723 beta
    D(  201) --> V(   17) amplitude = -0.1977 beta

 Excited state  67: excitation energy (eV) =    5.1406
 Total energy for state 67:                 -3741.61437711 au
    <S**2>     :  9.7412
    Trans. Mom.:  0.1395 X  -0.0673 Y   0.0034 Z
    Strength   :     0.0030225828
    S(    5) --> V(    1) amplitude =  0.3118 alpha
    S(    5) --> V(    2) amplitude =  0.4381 alpha
    S(    5) --> V(    6) amplitude =  0.2841 alpha
    S(    5) --> V(    7) amplitude = -0.3154 alpha
    S(    5) --> V(    9) amplitude =  0.2962 alpha
    S(    5) --> V(   11) amplitude =  0.2051 alpha
    S(    5) --> V(   14) amplitude = -0.2185 alpha
    S(    5) --> V(   16) amplitude =  0.2106 alpha

 Excited state  68: excitation energy (eV) =    5.1525
[...]
 -0.2183
 -- Virtual --
 -0.0106  -0.0096  -0.0032   0.0156   0.0185   0.0191   0.0200   0.0216
  0.0250   0.0266   0.0270   0.0287   0.0327   0.0333   0.0345   0.0358
  0.0371   0.0392   0.0408   0.0430   0.0448   0.0468   0.0487   0.0506
  0.0531   0.0542   0.0581   0.0591   0.0610   0.0615   0.0625   0.0635
  0.0654   0.0659   0.0693   0.0706   0.0734   0.0749   0.0756   0.0767
  0.0783   0.0812   0.0816   0.0832   0.0856   0.0864   0.0882   0.0896
  0.0925   0.0928   0.0951   0.0967   0.0987   0.1005   0.1022   0.1032
  0.1037   0.1052   0.1071   0.1087   0.1104   0.1111   0.1120   0.1136
  0.1156   0.1160   0.1182   0.1192   0.1195   0.1221   0.1230   0.1243
  0.1261   0.1276   0.1279   0.1287   0.1307   0.1327   0.1330   0.1346
  0.1362   0.1371   0.1374   0.1390   0.1399   0.1425   0.1434   0.1439
  0.1452   0.1469   0.1483   0.1497   0.1504   0.1524   0.1535   0.1548
  0.1570   0.1572   0.1576   0.1593   0.1600   0.1619   0.1629   0.1654
  0.1670   0.1680   0.1691   0.1706   0.1717   0.1735   0.1736   0.1746
  0.1754   0.1761   0.1770   0.1802   0.1804   0.1818   0.1837   0.1847
  0.1860   0.1869   0.1897   0.1901   0.1914   0.1935   0.1960   0.1967
  0.1988   0.2000   0.2013   0.2024   0.2035   0.2045   0.2049   0.2068
  0.2078   0.2100   0.2106   0.2115   0.2136   0.2151   0.2159   0.2179
  0.2192   0.2206   0.2212   0.2238   0.2241   0.2271   0.2282   0.2298
  0.2313   0.2320   0.2327   0.2337   0.2363   0.2372   0.2387   0.2399
  0.2405   0.2415   0.2450   0.2457   0.2467   0.2480   0.2489   0.2509
  0.2521   0.2535   0.2540   0.2551   0.2559   0.2572   0.2578   0.2599
  0.2606   0.2631   0.2642   0.2654   0.2665   0.2682   0.2697   0.2711
  0.2719   0.2728   0.2735   0.2761   0.2764   0.2773   0.2780   0.2798
  0.2805   0.2811   0.2817   0.2838   0.2850   0.2861   0.2868   0.2876
  0.2886   0.2903   0.2918   0.2927   0.2935   0.2938   0.2952   0.2957
  0.2973   0.2976   0.2998   0.3011   0.3029   0.3041   0.3046   0.3063
  0.3075   0.3094   0.3126   0.3130   0.3143   0.3161   0.3169   0.3184
  0.3202   0.3206   0.3212   0.3215   0.3239   0.3244   0.3258   0.3271
  0.3281   0.3303   0.3310   0.3326   0.3331   0.3338   0.3359   0.3367
  0.3379   0.3394   0.3406   0.3413   0.3438   0.3451   0.3458   0.3473
  0.3489   0.3495   0.3504   0.3519   0.3530   0.3535   0.3565   0.3566
  0.3577   0.3595   0.3596   0.3614   0.3614   0.3629   0.3654   0.3667
  0.3672   0.3687   0.3691   0.3721   0.3738   0.3752   0.3764   0.3772
  0.3800   0.3805   0.3809   0.3815   0.3848   0.3857   0.3870   0.3881
  0.3886   0.3913   0.3924   0.3933   0.3944   0.3954   0.3958   0.3975
  0.3996   0.4012   0.4025   0.4039   0.4052   0.4070   0.4088   0.4098
  0.4108   0.4126   0.4133   0.4153   0.4159   0.4167   0.4187   0.4188
  0.4205   0.4223   0.4235   0.4241   0.4272   0.4281   0.4303   0.4325
  0.4329   0.4355   0.4363   0.4376   0.4381   0.4392   0.4406   0.4433
  0.4436   0.4466   0.4482   0.4487   0.4504   0.4517   0.4538   0.4541
  0.4557   0.4582   0.4593   0.4614   0.4624   0.4640   0.4660   0.4674
  0.4704   0.4719   0.4722   0.4743   0.4756   0.4770   0.4774   0.4800
  0.4824   0.4836   0.4852   0.4856   0.4881   0.4885   0.4899   0.4926
  0.4941   0.4960   0.4966   0.4988   0.5009   0.5012   0.5031   0.5040
  0.5053   0.5076   0.5085   0.5097   0.5110   0.5116   0.5157   0.5159
  0.5173   0.5204   0.5223   0.5228   0.5249   0.5267   0.5282   0.5305
  0.5322   0.5337   0.5342   0.5368   0.5382   0.5403   0.5408   0.5420
  0.5423   0.5473   0.5485   0.5500   0.5516   0.5529   0.5544   0.5567
  0.5579   0.5597   0.5604   0.5619   0.5639   0.5658   0.5678   0.5698
  0.5724   0.5736   0.5741   0.5752   0.5781   0.5784   0.5798   0.5822
  0.5846   0.5863   0.5876   0.5897   0.5908   0.5914   0.5944   0.5953
  0.5983   0.5985   0.6003   0.6022   0.6052   0.6059   0.6068   0.6094
  0.6102   0.6117   0.6141   0.6165   0.6178   0.6198   0.6213   0.6227
  0.6238   0.6253   0.6286   0.6291   0.6299   0.6315   0.6338   0.6347
  0.6363   0.6373   0.6392   0.6402   0.6437   0.6440   0.6469   0.6479
  0.6483   0.6500   0.6523   0.6528   0.6551   0.6571   0.6593   0.6599
  0.6621   0.6644   0.6650   0.6672   0.6681   0.6706   0.6709   0.6714
  0.6742   0.6750   0.6757   0.6777   0.6784   0.6798   0.6822   0.6831
  0.6864   0.6871   0.6882   0.6901   0.6909   0.6942   0.6953   0.6971
  0.7000   0.7014   0.7020   0.7036   0.7041   0.7061   0.7067   0.7073
  0.7103   0.7122   0.7133   0.7149   0.7182   0.7200   0.7202   0.7223
  0.7231   0.7253   0.7273   0.7284   0.7299   0.7313   0.7327   0.7345
  0.7359   0.7364   0.7385   0.7401   0.7420   0.7437   0.7444   0.7474
  0.7485   0.7501   0.7515   0.7527   0.7538   0.7565   0.7581   0.7592
  0.7607   0.7621   0.7635   0.7653   0.7658   0.7674   0.7702   0.7726
  0.7751   0.7759   0.7765   0.7776   0.7799   0.7824   0.7833   0.7860
  0.7876   0.7885   0.7901   0.7913   0.7930   0.7940   0.7961   0.7969
  0.7988   0.8015   0.8048   0.8059   0.8068   0.8084   0.8089   0.8109
  0.8124   0.8129   0.8156   0.8165   0.8172   0.8205   0.8225   0.8251
  0.8275   0.8290   0.8313   0.8323   0.8335   0.8349   0.8377   0.8388
  0.8417   0.8426   0.8444   0.8459   0.8485   0.8490   0.8506   0.8520
  0.8545   0.8562   0.8569   0.8579   0.8596   0.8645   0.8651   0.8653
  0.8684   0.8692   0.8706   0.8727   0.8732   0.8763   0.8800   0.8818
  0.8836   0.8855   0.8858   0.8888   0.8892   0.8917   0.8926   0.8959
  0.8981   0.8995   0.9010   0.9047   0.9055   0.9078   0.9084   0.9114
  0.9151   0.9164   0.9169   0.9188   0.9225   0.9234   0.9254   0.9277
  0.9302   0.9315   0.9339   0.9356   0.9368   0.9407   0.9419   0.9423
  0.9439   0.9461   0.9470   0.9490   0.9501   0.9521   0.9553   0.9575
  0.9591   0.9625   0.9655   0.9673   0.9683   0.9722   0.9741   0.9769
  0.9773   0.9809   0.9835   0.9853   0.9855   0.9887   0.9897   0.9918
  0.9941   0.9958   1.0014   1.0030   1.0056   1.0070   1.0107   1.0133
  1.0162   1.0169   1.0187   1.0234   1.0247   1.0263   1.0293   1.0317
  1.0350   1.0388   1.0408   1.0425   1.0440   1.0444   1.0464   1.0498
  1.0522   1.0548   1.0562   1.0599   1.0613   1.0635   1.0658   1.0673
  1.0707   1.0777   1.0802   1.0808   1.0838   1.0884   1.0913   1.0934
  1.0954   1.0970   1.1012   1.1042   1.1049   1.1073   1.1122   1.1123
  1.1138   1.1195   1.1201   1.1225   1.1247   1.1280   1.1290   1.1342
  1.1361   1.1401   1.1434   1.1468   1.1489   1.1517   1.1570   1.1599
  1.1616   1.1650   1.1658   1.1688   1.1711   1.1741   1.1789   1.1807
  1.1851   1.1866   1.1894   1.1909   1.1928   1.1956   1.1980   1.1997
  1.2069   1.2093   1.2130   1.2153   1.2171   1.2188   1.2215   1.2284
  1.2304   1.2330   1.2355   1.2376   1.2398   1.2429   1.2462   1.2467
  1.2519   1.2549   1.2553   1.2580   1.2656   1.2675   1.2707   1.2732
  1.2769   1.2774   1.2792   1.2849   1.2870   1.2907   1.2942   1.2986
  1.2996   1.3010   1.3032   1.3052   1.3079   1.3121   1.3139   1.3200
  1.3210   1.3232   1.3272   1.3280   1.3306   1.3329   1.3344   1.3384
  1.3390   1.3421   1.3469   1.3480   1.3519   1.3557   1.3563   1.3596
  1.3634   1.3637   1.3673   1.3727   1.3743   1.3776   1.3793   1.3826
  1.3871   1.3896   1.3909   1.3952   1.3993   1.4002   1.4043   1.4088
  1.4122   1.4144   1.4198   1.4210   1.4238   1.4282   1.4284   1.4327
  1.4347   1.4367   1.4410   1.4415   1.4440   1.4451   1.4499   1.4529
  1.4584   1.4605   1.4643   1.4655   1.4696   1.4701   1.4738   1.4768
  1.4781   1.4805   1.4814   1.4892   1.4940   1.4958   1.4983   1.4991
  1.5009   1.5082   1.5115   1.5139   1.5149   1.5192   1.5204   1.5229
  1.5299   1.5318   1.5329   1.5362   1.5369   1.5445   1.5483   1.5519
  1.5536   1.5587   1.5621   1.5629   1.5648   1.5674   1.5722   1.5760
  1.5778   1.5808   1.5840   1.5860   1.5897   1.5907   1.5968   1.5976
  1.6008   1.6011   1.6033   1.6066   1.6081   1.6128   1.6163   1.6165
  1.6203   1.6254   1.6268   1.6314   1.6345   1.6386   1.6420   1.6443
  1.6470   1.6507   1.6545   1.6562   1.6564   1.6630   1.6636   1.6667
  1.6682   1.6734   1.6742   1.6759   1.6787   1.6791   1.6814   1.6863
  1.6896   1.6922   1.6934   1.6979   1.7009   1.7047   1.7050   1.7070
  1.7108   1.7175   1.7203   1.7219   1.7236   1.7265   1.7273   1.7322
  1.7331   1.7350   1.7380   1.7402   1.7425   1.7452   1.7503   1.7515
  1.7546   1.7579   1.7595   1.7627   1.7631   1.7659   1.7682   1.7722
  1.7738   1.7775   1.7784   1.7812   1.7879   1.7887   1.7931   1.7964
  1.7983   1.8004   1.8029   1.8058   1.8102   1.8112   1.8156   1.8182
  1.8194   1.8208   1.8266   1.8294   1.8317   1.8336   1.8358   1.8393
  1.8403   1.8455   1.8472   1.8486   1.8524   1.8529   1.8569   1.8599
  1.8629   1.8662   1.8691   1.8720   1.8767   1.8785   1.8829   1.8873
  1.8882   1.8909   1.8925   1.8995   1.9000   1.9022   1.9043   1.9078
  1.9106   1.9143   1.9150   1.9176   1.9225   1.9267   1.9299   1.9330
  1.9354   1.9378   1.9416   1.9449   1.9469   1.9489   1.9516   1.9545
  1.9580   1.9611   1.9620   1.9685   1.9705   1.9734   1.9758   1.9762
  1.9808   1.9851   1.9869   1.9901   1.9913   1.9922   1.9948   1.9959
  1.9991   2.0014   2.0040   2.0062   2.0107   2.0111   2.0162   2.0189
  2.0208   2.0257   2.0286   2.0291   2.0344   2.0367   2.0372   2.0380
  2.0391   2.0424   2.0466   2.0493   2.0535   2.0546   2.0581   2.0600
  2.0618   2.0651   2.0691   2.0717   2.0731   2.0783   2.0794   2.0811
  2.0848   2.0862   2.0893   2.0912   2.0952   2.0969   2.1010   2.1032
  2.1094   2.1102   2.1127   2.1159   2.1187   2.1209   2.1245   2.1266
  2.1278   2.1343   2.1365   2.1374   2.1414   2.1451   2.1458   2.1523
  2.1542   2.1564   2.1576   2.1582   2.1621   2.1653   2.1672   2.1695
  2.1725   2.1764   2.1782   2.1812   2.1818   2.1863   2.1894   2.1926
  2.1931   2.1958   2.2013   2.2034   2.2078   2.2096   2.2127   2.2135
  2.2163   2.2190   2.2212   2.2245   2.2275   2.2293   2.2327   2.2375
  2.2399   2.2451   2.2480   2.2526   2.2564   2.2591   2.2603   2.2618
  2.2634   2.2691   2.2738   2.2760   2.2782   2.2823   2.2864   2.2878
  2.2934   2.2951   2.2964   2.2987   2.3016   2.3067   2.3087   2.3108
  2.3138   2.3157   2.3235   2.3248   2.3313   2.3325   2.3353   2.3385
  2.3449   2.3475   2.3493   2.3556   2.3594   2.3613   2.3639   2.3676
  2.3723   2.3758   2.3791   2.3815   2.3846   2.3852   2.3888   2.3891
  2.3963   2.3983   2.4040   2.4103   2.4143   2.4193   2.4211   2.4240
  2.4269   2.4328   2.4350   2.4386   2.4439   2.4465   2.4512   2.4536
  2.4605   2.4611   2.4631   2.4666   2.4712   2.4755   2.4780   2.4807
  2.4833   2.4906   2.4917   2.4924   2.5004   2.5058   2.5082   2.5096
  2.5175   2.5240   2.5286   2.5332   2.5365   2.5409   2.5460   2.5483
  2.5532   2.5568   2.5601   2.5640   2.5661   2.5694   2.5800   2.5820
  2.5856   2.5933   2.5954   2.5978   2.6009   2.6028   2.6114   2.6126
  2.6152   2.6190   2.6229   2.6265   2.6310   2.6332   2.6374   2.6385
  2.6441   2.6488   2.6520   2.6547   2.6643   2.6730   2.6733   2.6777
  2.6851   2.6899   2.6911   2.6938   2.6985   2.7028   2.7089   2.7115
  2.7124   2.7172   2.7288   2.7293   2.7347   2.7391   2.7419   2.7444
  2.7503   2.7540   2.7554   2.7590   2.7645   2.7670   2.7685   2.7750
  2.7797   2.7853   2.7887   2.7950   2.8040   2.8048   2.8112   2.8142
  2.8178   2.8198   2.8228   2.8326   2.8350   2.8431   2.8468   2.8477
  2.8566   2.8577   2.8633   2.8657   2.8745   2.8793   2.8842   2.8876
  2.8910   2.8966   2.9027   2.9136   2.9184   2.9241   2.9279   2.9316
  2.9367   2.9423   2.9496   2.9541   2.9618   2.9707   2.9740   2.9766
  2.9773   2.9848   2.9897   3.0004   3.0033   3.0082   3.0204   3.0336
  3.0397   3.0442   3.0482   3.0520   3.0555   3.0729   3.0837   3.0896
  3.0926   3.0980   3.1140   3.1201   3.1353   3.1417   3.1468   3.1528
  3.1551   3.1797   3.1861   3.1987   3.2121   3.2355   3.2497   3.2555
  3.2626   3.2953   3.3021   3.3154   3.3192   3.3330   3.3444   3.3501
  3.3564   3.3707   3.3816   3.3973   3.4001   3.4171   3.4281   3.4500
  3.4537   3.4749   3.4792   3.4831   3.5074   3.5102   3.5332   3.5377
  3.5521   3.5686   3.5719   3.5753   3.5800   3.5854   3.5957   3.6055
  3.6082   3.6162   3.6204   3.6302   3.6404   3.6489   3.6543   3.6631
  3.6681   3.6698   3.6739   3.6773   3.6796   3.6904   3.7011   3.7072
  3.7129   3.7221   3.7287   3.7380   3.7461   3.7591   3.7625   3.7651
  3.7722   3.7737   3.7884   3.7949   3.7978   3.8153   3.8215   3.8304
  3.8382   3.8481   3.8539   3.8641   3.8716   3.8844   3.8927   3.8973
  3.9080   3.9099   3.9245   3.9341   3.9509   3.9739   3.9823   3.9876
  3.9998   4.0024   4.0145   4.0340   4.0421   4.0575   4.0927   4.1046
  4.1222   4.1414   4.1742   4.1815   4.1964   4.2046   4.2308   4.2786
  4.3211   4.3412   4.3926   4.4274   4.4451   4.5041   4.5460   4.6489
  4.6799   4.8057   4.8725   4.9220
 --------------------------------------------------------------
 
          Ground-State Mulliken Net Atomic Charges

     Atom                 Charge (a.u.)    Spin (a.u.)
  --------------------------------------------------------
      1 C                     0.647442      -0.029965
      2 C                     0.888403       0.024847
      3 C                     1.167846       0.002005
      4 C                     0.959660      -0.000265
      5 C                     0.522854       0.012926
      6 C                     0.564509      -0.013317
      7 H                    -1.177375      -0.000064
      8 O                    -1.129276       0.115753
      9 C                     0.030991      -0.001733
     10 O                    -0.869831       0.000992
     11 N                     0.063743      -0.000190
     12 H                    -0.097743      -0.000109
     13 C                     1.129980      -0.000153
     14 H                    -0.577080       0.000012
     15 H                    -0.500864      -0.000006
     16 C                     1.364720       0.000075
     17 H                    -0.511043      -0.000004
     18 H                    -0.619733       0.000053
     19 C                     1.446453       0.000048
     20 H                    -0.653908      -0.000125
     21 H                    -0.647865       0.000006
     22 N                    -0.332823       0.000056
     23 H                     0.004626      -0.000017
     24 C                     1.314869      -0.000194
     25 H                    -1.355016      -0.000201
     26 H                    -0.681786      -0.000112
     27 C                     2.169193      -0.000216
     28 H                    -0.722851      -0.000414
     29 H                    -1.330632       0.000574
     30 C                     1.532443      -0.000236
     31 H                    -0.598906      -0.000047
     32 H                    -0.609015       0.000001
     33 C                     1.424388      -0.001030
     34 H                    -0.854609      -0.000488
     35 H                    -0.645598       0.000075
     36 N                     0.744576      -0.000724
     37 H                    -0.205441       0.005287
     38 C                     0.400217      -0.006633
     39 O                    -0.911734      -0.000131
     40 C                     1.850703       0.009403
     41 H                    -0.443955       0.001046
     42 H                    -0.528238       0.001081
     43 C                     1.120289       0.007159
     44 H                    -0.953444       0.002379
     45 H                    -0.667722       0.000160
     46 C                     0.805496       0.000824
     47 O                    -0.867823      -0.000029
     48 N                     0.867373      -0.003374
     49 C                     1.363695       0.000048
     50 H                    -0.525777      -0.001882
     51 C                     1.727814       0.000195
     52 H                    -0.642153       0.000065
     53 H                    -0.657901       0.000112
     54 C                     0.950676      -0.000265
     55 H                    -0.601326      -0.000054
     56 H                    -0.937518       0.000262
     57 C                     1.088512       0.000018
     58 H                    -0.598765      -0.000002
     59 H                    -0.565460       0.000106
     60 H                    -0.453982       0.000003
     61 H                    -0.595540       0.000005
     62 C                    -0.354853      -0.001863
     63 C                     0.943123      -0.000605
     64 O                    -0.897090       0.000990
     65 C                     1.729714       0.006366
     66 C                     0.440798       0.010001
     67 C                     1.783583       0.015006
     68 C                     0.203577      -0.018845
     69 C                     0.017468      -0.007314
     70 H                    -1.718282       0.002054
     71 O                    -0.988038       0.112333
     72 C                     0.218704       0.011533
     73 O                    -1.207667       0.158055
     74 C                     0.811118       0.003829
     75 O                    -0.907144       0.081734
     76 O                    -1.030945       0.007434
     77 H                    -1.097861       0.000073
     78 O                    -1.030822       0.120950
     79 H                    -1.073156      -0.000195
     80 O                    -1.225131       0.119477
     81 Fe                    2.138771       4.255791
     82 N                    -0.214237      -0.000021
     83 H                    -0.067889      -0.000037
     84 N                     0.257426       0.000047
     85 H                    -0.066339      -0.000210
     86 C                     1.059943      -0.000078
     87 H                    -0.458875      -0.000012
     88 H                    -0.610425       0.000009
     89 C                     1.185855       0.000104
     90 H                    -0.467017       0.000005
     91 H                    -0.390770       0.000014
     92 C                     1.542916       0.000060
     93 H                    -0.631631       0.000007
     94 H                    -0.707503      -0.000456
     95 H                    -1.161166       0.000152
     96 H                    -1.104889       0.000015
  --------------------------------------------------------
  Sum of atomic charges =    -3.000000
  Sum of spin   charges =     5.000000

 -----------------------------------------------------------------
                    Cartesian Multipole Moments
 -----------------------------------------------------------------
    Charge (ESU x 10^10)
               -14.4096
    Dipole Moment (Debye)
         X      -7.7168      Y      -4.7078      Z      14.5155
       Tot      17.1001
    Quadrupole Moments (Debye-Ang)
        XX    -540.2911     XY       5.8093     YY    -459.2581
        XZ      22.0510     YZ     -28.7528     ZZ    -360.4969
    Octopole Moments (Debye-Ang^2)
       XXX     -35.4352    XXY     263.1928    XYY    -127.9165
       YYY    -369.2653    XXZ     611.7047    XYZ     -46.7075
       YYZ     217.9624    XZZ     -82.4975    YZZ     -26.8929
       ZZZ     404.4624
    Hexadecapole Moments (Debye-Ang^3)
      XXXX  -58783.7495   XXXY    1052.8201   XXYY  -10873.6067
      XYYY     -67.4051   YYYY  -10999.8009   XXXZ    2062.4539
      XXYZ   -1066.3193   XYYZ      40.3308   YYYZ     -17.4290
      XXZZ   -8262.5952   XYZZ     227.9046   YYZZ   -2323.7575
      XZZZ     129.3144   YZZZ    -229.6399   ZZZZ   -4480.5309
 -----------------------------------------------------------------
 Total job time:  723338.81s(wall), 12686582.61s(cpu) 
 Thu Sep 21 00:19:52 2023

        *************************************************************
        *                                                           *
        *  Thank you very much for using Q-Chem.  Have a nice day.  *
        *                                                           *
        *************************************************************


