
Running Job 1 of 1 C_FePB2_ccL_3sextet_b3lypD3bj_ccpVDZ_pcmH2O_opt_4.in
qchem C_FePB2_ccL_3sextet_b3lypD3bj_ccpVDZ_pcmH2O_opt_4.in_4120766.0 /data/scratch/C_FePB2_ccL_3sextet_b3lypD3bj_ccpVDZ_pcmH2O_opt_420230725134203/ 0
/opt/qchem/6.0.1/exe/qcprog.exe_s C_FePB2_ccL_3sextet_b3lypD3bj_ccpVDZ_pcmH2O_opt_4.in_4120766.0 /data/scratch/C_FePB2_ccL_3sextet_b3lypD3bj_ccpVDZ_pcmH2O_opt_420230725134203/
                  Welcome to Q-Chem
     A Quantum Leap Into The Future Of Chemistry


 Q-Chem 6.0, Q-Chem, Inc., Pleasanton, CA (2022)

 E. Epifanovsky,  A. T. B. Gilbert,  Xintian Feng,  Joonho Lee,  Yuezhi Mao,  
 N. Mardirossian,  P. Pokhilko,  A. White,  M. Wormit,  M. P. Coons,  
 A. L. Dempwolff,  Zhengting Gan,  D. Hait,  P. R. Horn,  L. D. Jacobson,  
 I. Kaliman,  J. Kussmann,  A. W. Lange,  Ka Un Lao,  D. S. Levine,  Jie Liu,  
 S. C. McKenzie,  A. F. Morrison,  K. Nanda,  F. Plasser,  D. R. Rehn,  
 M. L. Vidal,  Zhi-Qiang You,  Ying Zhu,  B. Alam,  B. Albrecht,  
 A. Aldossary,  E. Alguire,  J. H. Andersen,  V. Athavale,  D. Barton,  
 K. Begam,  A. Behn,  N. Bellonzi,  Y. A. Bernard,  E. J. Berquist,  
 H. Burton,  A. Carreras,  K. Carter-Fenk,  Romit Chakraborty,  
 Chandrima Chakravarty,  Junhan Chen,  A. D. Chien,  K. D. Closser,  
 V. Cofer-Shabica,  L. Cunha,  S. Dasgupta,  Jia Deng,  M. de Wergifosse,  
 M. Diedenhofen,  Hainam Do,  S. Ehlert,  Po-Tung Fang,  S. Fatehi,  
 Qingguo Feng,  T. Friedhoff,  B. Ganoe,  J. Gayvert,  Qinghui Ge,  
 G. Gidofalvi,  M. Goldey,  J. Gomes,  C. Gonzalez-Espinoza,  S. Gulania,  
 A. Gunina,  J. A. Gyamfi,  M. W. D. Hanson-Heine,  P. H. P. Harbach,  
 A. W. Hauser,  M. F. Herbst,  M. Hernandez Vera,  M. Hodecker,  
 Z. C. Holden,  S. Houck,  Xunkun Huang,  Kerwin Hui,  B. C. Huynh,  
 K. Ikeda,  M. Ivanov,  Hyunjun Ji,  Zuxin Jin,  Hanjie Jiang,  B. Kaduk,  
 S. Kaehler,  R. Kang,  K. Khistyaev,  Jaehoon Kim,  Yongbin Kim,  
 P. Klunzinger,  Z. Koczor-Benda,  Joong Hoon Koh,  D. Kosenkov,  
 Saikiran Kotaru,  L. Koulias,  T. Kowalczyk,  C. M. Krauter,  K. Kue,  
 A. Kunitsa,  T. Kus,  A. Landau,  K. V. Lawler,  D. Lefrancois,  S. Lehtola,  
 Rain Li,  Shaozhi Li,  Yi-Pei Li,  Jiashu Liang,  M. Liebenthal,  
 Hung-Hsuan Lin,  You-Sheng Lin,  Fenglai Liu,  Kuan-Yu Liu,  
 M. Loipersberger,  A. Luenser,  C. Malbon,  A. Manjanath,  P. Manohar,  
 E. Mansoor,  S. F. Manzer,  Shan-Ping Mao,  A. V. Marenich,  T. Markovich,  
 S. Mason,  F. Matz,  S. A. Maurer,  P. F. McLaughlin,  M. F. S. J. Menger,  
 J.-M. Mewes,  S. A. Mewes,  P. Morgante,  Mohammad Mostafanejad,  
 J. W. Mullinax,  K. J. Oosterbaan,  G. Paran,  V. Parravicini,  
 Alexander C. Paul,  Suranjan K. Paul,  F. Pavosevic,  Zheng Pei,  S. Prager,  
 E. I. Proynov,  E. Ramos,  B. Rana,  A. E. Rask,  A. Rettig,  R. M. Richard,  
 F. Rob,  E. Rossomme,  T. Scheele,  M. Scheurer,  M. Schneider,  
 P. E. Schneider,  N. Sergueev,  S. M. Sharada,  Hengyuan Shen,  
 W. Skomorowski,  D. W. Small,  C. J. Stein,  Yingli Su,  Yu-Chuan Su,  
 E. J. Sundstrom,  Zhen Tao,  J. Thirman,  Hung-Yi Tsai,  T. Tsuchimochi,  
 N. M. Tubman,  C. Utku,  S. P. Veccham,  O. Vydrov,  J. Wenzel,  
 Jonathan Wong,  J. Witte,  A. Yamada,  Chou-Hsun Yang,  Kun Yao,  
 S. Yeganeh,  S. R. Yost,  A. Zech,  F. Zeller,  Igor Ying Zhang,  
 Xing Zhang,  Yu Zhang,  D. Zuev,  A. Aspuru-Guzik,  A. T. Bell,  
 N. A. Besley,  K. B. Bravaya,  B. R. Brooks,  D. Casanova,  Jeng-Da Chai,  
 Hsing-Ta Chen,  S. Coriani,  C. J. Cramer,  A. E. DePrince, III,  
 R. A. DiStasio Jr.,  A. Dreuw,  B. D. Dunietz,  T. R. Furlani,  
 W. A. Goddard III,  S. Grimme,  S. Hammes-Schiffer,  T. Head-Gordon,  
 W. J. Hehre,  Chao-Ping Hsu,  T.-C. Jagau,  Yousung Jung,  A. Klamt,  
 Jing Kong,  D. S. Lambrecht,  Xiangyuan Li,  WanZhen Liang,  N. J. Mayhall,  
 C. W. McCurdy,  J. B. Neaton,  T. Neudecker,  C. Ochsenfeld,  
 J. A. Parkhill,  R. Peverati,  V. A. Rassolov,  Haisheng Ren,  Yihan Shao,  
 L. V. Slipchenko,  R. P. Steele,  J. E. Subotnik,  A. J. W. Thom,  
 A. Tkatchenko,  D. G. Truhlar,  T. Van Voorhis,  Fan Wang,  
 T. A. Wesolowski,  K. B. Whaley,  H. L. Woodcock III,  P. M. Zimmerman,  
 S. Faraji,  P. M. W. Gill,  M. Head-Gordon,  J. M. Herbert,  A. I. Krylov

 Contributors to earlier versions of Q-Chem not listed above: 
 R. D. Adamson,  B. Austin,  R. Baer,  J. Baker,  G. J. O. Beran,  
 K. Brandhorst,  S. T. Brown,  E. F. C. Byrd,  Arup K. Chakraborty,  
 G. K. L. Chan,  Chun-Min Chang,  Yunqing Chen,  C.-L. Cheng,  
 Siu Hung Chien,  D. M. Chipman,  D. L. Crittenden,  H. Dachsel,  
 R. J. Doerksen,  A. D. Dutoi,  R. G. Edgar,  J. Fosso-Tande,  
 L. Fusti-Molnar,  D. Ghosh,  A. Ghysels,  A. Golubeva-Zadorozhnaya,  
 J. Gonthier,  M. S. Gordon,  S. R. Gwaltney,  G. Hawkins,  J. E. Herr,  
 A. Heyden,  S. Hirata,  E. G. Hohenstein,  G. Kedziora,  F. J. Keil,  
 C. Kelley,  Jihan Kim,  R. A. King,  R. Z. Khaliullin,  P. P. Korambath,  
 W. Kurlancheek,  A. Laurent,  A. M. Lee,  M. S. Lee,  S. V. Levchenko,  
 Ching Yeh Lin,  D. Liotard,  E. Livshits,  R. C. Lochan,  I. Lotan,  
 L. A. Martinez-Martinez,  P. E. Maslen,  N. Nair,  D. P. O'Neill,  
 D. Neuhauser,  E. Neuscamman,  C. M. Oana,  R. Olivares-Amaya,  R. Olson,  
 T. M. Perrine,  B. Peters,  P. A. Pieniazek,  A. Prociuk,  Y. M. Rhee,  
 J. Ritchie,  M. A. Rohrdanz,  E. Rosta,  N. J. Russ,  H. F. Schaefer III,  
 M. W. Schmidt,  N. E. Schultz,  S. Sharma,  N. Shenvi,  C. D. Sherrill,  
 A. C. Simmonett,  A. Sodt,  T. Stein,  D. Stuck,  K. S. Thanthiriwatte,  
 V. Vanovschi,  L. Vogt,  Tao Wang,  A. Warshel,  M. A. Watson,  
 C. F. Williams,  Q. Wu,  X. Xu,  Jun Yang,  W. Zhang,  Yan Zhao

   Please cite Q-Chem as follows:
  "Software for the frontiers of quantum chemistry:
   An overview of developments in the Q-Chem 5 package"
   J. Chem. Phys. 155, 084801 (2021)
   https://doi.org/10.1063/5.0055522 (open access)

 Q-Chem 6.0.2 for Intel X86 EM64T Linux

 Parts of Q-Chem use Armadillo 9.900.5 (Nocturnal Misbehaviour).
 http://arma.sourceforge.net/

 Q-Chem begins on Tue Jul 25 13:42:05 2023  

 Host: 
0

     Scratch files written to /data/scratch/C_FePB2_ccL_3sextet_b3lypD3bj_ccpVDZ_pcmH2O_opt_420230725134203//
 Dec722 |scratch|qcdevops|jenkins|workspace|build_RNUM 8907   
 Processing $rem in /opt/qchem/6.0.1/config/preferences:
 Processing $rem in /home/sgardner/.qchemrc:
 Symmetry turned off for PCM/SM12/SMD calculation

 Checking the input file for inconsistencies... 	...done.

--------------------------------------------------------------
User input:
--------------------------------------------------------------
$molecule
-3 6
C    3.0648546   -1.7468212   -0.8829892
C    4.2853609   -2.3038772   -0.4961913
C    5.4729390   -2.0482227   -1.2293582
C    5.4013581   -1.2943339   -2.4086290
C    4.1936943   -0.7061660   -2.8045894
C    3.0344048   -0.8589992   -2.0233155
H    4.3002767   -2.9278338    0.4021751
O    1.9021996   -0.2274461   -2.2434662
C    6.8273963   -2.3035478   -0.6791290
O    7.8552643   -2.3104720   -1.3766074
N    6.8872263   -2.4385285    0.6891143
H    6.0219805   -2.2204535    1.1728731
C    8.0882239   -2.0799953    1.4361399
H    8.2444138   -2.8024618    2.2539235
H    8.9373736   -2.1656089    0.7437957
C    7.9761970   -0.6573639    2.0047312
H    8.8386546   -0.4739573    2.6676141
H    7.0791761   -0.6100922    2.6473777
C    7.8834134    0.4595028    0.9275039
H    7.8064854    0.0054965   -0.0730754
H    8.8231136    1.0362774    0.9299111
N    6.7757111    1.4119094    1.0572093
H    6.7781315    1.7923207    2.0076749
C    4.3440617    1.8780382    0.9609417
H    3.3682707    1.3741755    0.8730556
H    4.3936957    2.2675851    1.9947547
C    5.4539055    0.8386035    0.7894968
H    5.2214603   -0.0334985    1.4373750
H    5.4581613    0.4484590   -0.2415465
C    4.4115580    3.0470245   -0.0326612
H    3.9794471    3.9545465    0.4138332
H    5.4691952    3.2699060   -0.2519465
C    3.6766684    2.7949810   -1.3588500
H    4.0173035    1.8560907   -1.8160144
H    3.9111438    3.6158631   -2.0581969
N    2.2281191    2.6923714   -1.2082014
H    1.7624626    1.8063881   -1.4191432
C    1.4691631    3.7457158   -0.8329290
O    1.9444992    4.8821686   -0.6687079
C   -0.0165623    3.4912823   -0.6071602
H   -0.5613324    3.7139517   -1.5379294
H   -0.3331508    4.2348971    0.1358567
C   -1.8527035    2.0008388    0.3867381
H   -2.0082016    0.9815846    0.7681495
H   -1.9656306    2.7172209    1.2130941
C   -2.8778301    2.3362140   -0.6760370
O   -3.1041350    3.5066866   -1.0219310
N   -3.5155319    1.2741833   -1.2274388
C   -4.4800139    1.3897366   -2.3111180
H   -3.2520023    0.3416518   -0.9186610
C   -5.9159748    1.0908289   -1.8699935
H   -4.1856723    0.6937136   -3.1126844
H   -4.4014108    2.4161292   -2.6972095
C   -6.4581339    2.0763940   -0.8341386
H   -6.5613190    1.1028867   -2.7673497
H   -5.9579802    0.0645730   -1.4739718
C   -7.8341203    1.6804388   -0.2713565
H   -6.5369677    3.0823965   -1.2845312
H   -5.7349429    2.1695195   -0.0066987
H   -8.1904056    2.4888920    0.3931374
H   -8.5577847    1.6147042   -1.1033857
C   -5.8415242   -2.2973998   -0.0893568
C   -4.2475082   -2.3633833   -1.9824832
O   -6.8307514   -2.2052108   -0.8478590
C   -4.4537405   -2.2191205   -0.6036270
C   -2.9770981   -2.1866972   -2.5440561
C   -3.3473245   -1.8941637    0.2253965
C   -1.8744467   -1.8386078   -1.7394323
C   -2.0704386   -1.7081315   -0.3109210
H   -3.4683607   -1.7215634    1.2981697
O   -0.6679789   -1.5865617   -2.1926078
C   -0.3909741    2.0610511   -0.1593338
O   -0.2414225    1.1713419   -1.2186646
C    0.5184000    1.6487016    1.0369677
O    1.0605445    0.4849177    0.9285802
O    0.6650878    2.4198320    2.0008319
H    4.1481247   -0.0644666   -3.6893129
O    1.9161540   -1.9324116   -0.2491644
H   -2.8277964   -2.2847023   -3.6232769
O   -1.0088042   -1.3571568    0.3981876
Fe    0.4797277   -0.6059448   -0.7844158
N   -7.9118623    0.4208953    0.4759681
H   -7.7024295   -0.3594075   -0.1527663
N   -6.0048326   -2.4538325    1.2557616
H   -5.1738579   -2.4966119    1.8337784
C   -7.2702078   -2.1941782    1.9247661
H   -8.0577735   -2.3076894    1.1689668
H   -7.4342543   -2.9623242    2.6968379
C   -7.3316955   -0.7986106    2.5667351
H   -8.3474277   -0.6584809    2.9757867
H   -6.6284779   -0.7619604    3.4173413
C   -6.9978025    0.3555984    1.6179849
H   -7.0884397    1.3030823    2.1772284
H   -5.9319225    0.2777540    1.3186987
H   -5.1058366   -2.5938159   -2.6148737
H    6.3212826   -1.1045713   -2.9639862
$end

$rem
BASIS  =  gen
DFT_D  =  D3_BJ
GUI  =  2
JOB_TYPE  =  Optimization
METHOD  =  B3LYP
SCF_CONVERGENCE  =  8
SOLVENT_METHOD  =  PCM
$end


$pcm
THEORY  CPCM
$end


$solvent
DIELECTRIC  78.39
$end


$van_der_waals
26   2.44
$end


!----------------------------------------------------------------------
! Basis Set Exchange
! Basis set: cc-pVDZ
!----------------------------------------------------------------------


$rem
BASIS GEN
PURECART 11
$end


$basis
H     0
S   4   1.00
1.301000D+01           1.968500D-02
1.962000D+00           1.379770D-01
4.446000D-01           4.781480D-01
1.220000D-01           5.012400D-01
S   1   1.00
1.220000D-01           1.000000D+00
P   1   1.00
7.270000D-01           1.0000000
****
C     0
S   9   1.00
6.665000D+03           6.920000D-04
1.000000D+03           5.329000D-03
2.280000D+02           2.707700D-02
6.471000D+01           1.017180D-01
2.106000D+01           2.747400D-01
7.495000D+00           4.485640D-01
2.797000D+00           2.850740D-01
5.215000D-01           1.520400D-02
1.596000D-01          -3.191000D-03
S   9   1.00
6.665000D+03          -1.460000D-04
1.000000D+03          -1.154000D-03
2.280000D+02          -5.725000D-03
6.471000D+01          -2.331200D-02
2.106000D+01          -6.395500D-02
7.495000D+00          -1.499810D-01
2.797000D+00          -1.272620D-01
5.215000D-01           5.445290D-01
1.596000D-01           5.804960D-01
S   1   1.00
1.596000D-01           1.000000D+00
P   4   1.00
9.439000D+00           3.810900D-02
2.002000D+00           2.094800D-01
5.456000D-01           5.085570D-01
1.517000D-01           4.688420D-01
P   1   1.00
1.517000D-01           1.000000D+00
D   1   1.00
5.500000D-01           1.0000000
****
N     0
S   9   1.00
9.046000D+03           7.000000D-04
1.357000D+03           5.389000D-03
3.093000D+02           2.740600D-02
8.773000D+01           1.032070D-01
2.856000D+01           2.787230D-01
1.021000D+01           4.485400D-01
3.838000D+00           2.782380D-01
7.466000D-01           1.544000D-02
2.248000D-01          -2.864000D-03
S   9   1.00
9.046000D+03          -1.530000D-04
1.357000D+03          -1.208000D-03
3.093000D+02          -5.992000D-03
8.773000D+01          -2.454400D-02
2.856000D+01          -6.745900D-02
1.021000D+01          -1.580780D-01
3.838000D+00          -1.218310D-01
7.466000D-01           5.490030D-01
2.248000D-01           5.788150D-01
S   1   1.00
2.248000D-01           1.000000D+00
P   4   1.00
1.355000D+01           3.991900D-02
2.917000D+00           2.171690D-01
7.973000D-01           5.103190D-01
2.185000D-01           4.622140D-01
P   1   1.00
2.185000D-01           1.000000D+00
D   1   1.00
8.170000D-01           1.0000000
****
O     0
S   9   1.00
1.172000D+04           7.100000D-04
1.759000D+03           5.470000D-03
4.008000D+02           2.783700D-02
1.137000D+02           1.048000D-01
3.703000D+01           2.830620D-01
1.327000D+01           4.487190D-01
5.025000D+00           2.709520D-01
1.013000D+00           1.545800D-02
3.023000D-01          -2.585000D-03
S   9   1.00
1.172000D+04          -1.600000D-04
1.759000D+03          -1.263000D-03
4.008000D+02          -6.267000D-03
1.137000D+02          -2.571600D-02
3.703000D+01          -7.092400D-02
1.327000D+01          -1.654110D-01
5.025000D+00          -1.169550D-01
1.013000D+00           5.573680D-01
3.023000D-01           5.727590D-01
S   1   1.00
3.023000D-01           1.000000D+00
P   4   1.00
1.770000D+01           4.301800D-02
3.854000D+00           2.289130D-01
1.046000D+00           5.087280D-01
2.753000D-01           4.605310D-01
P   1   1.00
2.753000D-01           1.000000D+00
D   1   1.00
1.185000D+00           1.0000000
****
Fe     0
S   20   1.00
4.316265D+06           8.048803D-06
6.463424D+05           6.258306D-05
1.470897D+05           3.290239D-04
4.166152D+04           1.387355D-03
1.359077D+04           5.023256D-03
4.905750D+03           1.610140D-02
1.912746D+03           4.590034D-02
7.926043D+02           1.136154D-01
3.448065D+02           2.283869D-01
1.558999D+02           3.221159D-01
7.223091D+01           2.383661D-01
3.272506D+01           7.404667D-02
1.566762D+01           9.214197D-02
7.503483D+00           9.339790D-02
3.312223D+00           1.573965D-02
1.558471D+00          -4.186682D-04
6.839140D-01           5.376318D-05
1.467570D-01          -3.816654D-05
7.058300D-02           4.319603D-05
3.144900D-02          -3.401019D-06
S   20   1.00
4.316265D+06          -4.155954D-06
6.463424D+05          -3.231401D-05
1.470897D+05          -1.699525D-04
4.166152D+04          -7.171369D-04
1.359077D+04          -2.603625D-03
4.905750D+03          -8.399109D-03
1.912746D+03          -2.434109D-02
7.926043D+02          -6.251948D-02
3.448065D+02          -1.365929D-01
1.558999D+02          -2.312707D-01
7.223091D+01          -2.383734D-01
3.272506D+01           3.123837D-02
1.566762D+01           5.086818D-01
7.503483D+00           4.987695D-01
3.312223D+00           9.033552D-02
1.558471D+00          -6.005337D-03
6.839140D-01           2.312454D-04
1.467570D-01          -5.643680D-04
7.058300D-02           4.992260D-04
3.144900D-02          -1.015293D-04
S   20   1.00
4.316265D+06           9.532178D-07
6.463424D+05           7.414605D-06
1.470897D+05           3.898393D-05
4.166152D+04           1.647152D-04
1.359077D+04           5.985980D-04
4.905750D+03           1.942390D-03
1.912746D+03           5.687237D-03
7.926043D+02           1.501329D-02
3.448065D+02           3.452455D-02
1.558999D+02           6.495820D-02
7.223091D+01           7.716194D-02
3.272506D+01          -1.873411D-02
1.566762D+01          -3.009185D-01
7.503483D+00          -4.554661D-01
3.312223D+00           1.286463D-01
1.558471D+00           7.183316D-01
6.839140D-01           4.051743D-01
1.467570D-01           2.168227D-02
7.058300D-02          -8.343566D-03
3.144900D-02           3.658979D-03
S   20   1.00
4.316265D+06          -2.063008D-07
6.463424D+05          -1.604169D-06
1.470897D+05          -8.438437D-06
4.166152D+04          -3.563151D-05
1.359077D+04          -1.295998D-04
4.905750D+03          -4.201534D-04
1.912746D+03          -1.231954D-03
7.926043D+02          -3.248922D-03
3.448065D+02          -7.493717D-03
1.558999D+02          -1.410102D-02
7.223091D+01          -1.691600D-02
3.272506D+01           4.218996D-03
1.566762D+01           6.833810D-02
7.503483D+00           1.098201D-01
3.312223D+00          -4.009005D-02
1.558471D+00          -2.174739D-01
6.839140D-01          -2.465135D-01
1.467570D-01           2.731435D-01
7.058300D-02           5.748321D-01
3.144900D-02           3.012713D-01
S   20   1.00
4.316265D+06          -4.009367D-07
6.463424D+05          -3.189255D-06
1.470897D+05          -1.623079D-05
4.166152D+04          -7.157920D-05
1.359077D+04          -2.463958D-04
4.905750D+03          -8.544907D-04
1.912746D+03          -2.307593D-03
7.926043D+02          -6.728292D-03
3.448065D+02          -1.366165D-02
1.558999D+02          -3.062240D-02
7.223091D+01          -2.631137D-02
3.272506D+01          -9.760183D-03
1.566762D+01           1.801906D-01
7.503483D+00           1.529634D-01
3.312223D+00           5.505413D-02
1.558471D+00          -9.551364D-01
6.839140D-01           2.586813D-01
1.467570D-01           1.834049D+00
7.058300D-02          -9.333240D-01
3.144900D-02          -6.981605D-01
S   1   1.00
3.144900D-02           1.000000D+00
P   16   1.00
1.774569D+04           4.100000D-05
4.200721D+03           3.690000D-04
1.364429D+03           2.129000D-03
5.220806D+02           9.369000D-03
2.214595D+02           3.309700D-02
1.009096D+02           9.443100D-02
4.840115D+01           2.080770D-01
2.398536D+01           3.323330D-01
1.218250D+01           3.329870D-01
6.242298D+00           1.568430D-01
3.110944D+00           2.154900D-02
1.509958D+00          -2.095000D-03
7.108450D-01          -1.739000D-03
2.731900D-01          -3.000000D-04
1.042330D-01           2.900000D-05
3.829100D-02          -1.100000D-05
P   16   1.00
1.774569D+04          -1.500000D-05
4.200721D+03          -1.300000D-04
1.364429D+03          -7.510000D-04
5.220806D+02          -3.329000D-03
2.214595D+02          -1.191200D-02
1.009096D+02          -3.493300D-02
4.840115D+01          -7.998900D-02
2.398536D+01          -1.346360D-01
1.218250D+01          -1.385980D-01
6.242298D+00           3.027800D-02
3.110944D+00           3.332160D-01
1.509958D+00           4.561530D-01
7.108450D-01           2.850510D-01
2.731900D-01           4.614400D-02
1.042330D-01          -3.249000D-03
3.829100D-02           1.357000D-03
P   16   1.00
1.774569D+04           5.000000D-06
4.200721D+03           4.200000D-05
1.364429D+03           2.410000D-04
5.220806D+02           1.085000D-03
2.214595D+02           3.831000D-03
1.009096D+02           1.142300D-02
4.840115D+01           2.579200D-02
2.398536D+01           4.481800D-02
1.218250D+01           4.459800D-02
6.242298D+00          -1.117700D-02
3.110944D+00          -1.381340D-01
1.509958D+00          -1.882850D-01
7.108450D-01          -1.073990D-01
2.731900D-01           4.448630D-01
1.042330D-01           6.402390D-01
3.829100D-02           6.445700D-02
P   16   1.00
1.774569D+04           3.000000D-06
4.200721D+03           2.900000D-05
1.364429D+03           1.650000D-04
5.220806D+02           7.340000D-04
2.214595D+02           2.626000D-03
1.009096D+02           7.725000D-03
4.840115D+01           1.773300D-02
2.398536D+01           3.005500D-02
1.218250D+01           3.109400D-02
6.242298D+00          -1.004800D-02
3.110944D+00          -8.830600D-02
1.509958D+00          -1.298240D-01
7.108450D-01          -7.693700D-02
2.731900D-01           2.126610D-01
1.042330D-01           5.730610D-01
3.829100D-02           3.696510D-01
P   1   1.00
3.829100D-02           1.000000D+00
D   8   1.00
1.133440D+02           3.530000D-03
3.364140D+01           2.578400D-02
1.233100D+01           9.911900D-02
4.994780D+00           2.390730D-01
2.072800D+00           3.571990D-01
8.307530D-01           3.621880D-01
3.091780D-01           2.364610D-01
1.001300D-01           6.011800D-02
D   8   1.00
1.133440D+02          -3.890000D-03
3.364140D+01          -2.844200D-02
1.233100D+01          -1.124290D-01
4.994780D+00          -2.742570D-01
2.072800D+00          -3.155460D-01
8.307530D-01           5.710900D-02
3.091780D-01           5.636040D-01
1.001300D-01           3.846370D-01
D   1   1.00
1.001300D-01           1.000000D+00
F   2   1.00
3.224300D+00           4.222490D-01
7.758000D-01           7.714680D-01
****
$end


--------------------------------------------------------------
 Adding empirical dispersion correction 
 ----------------------------------------------------------------
 Doing -D3(BJ) with
 s6  =   1.00000
 s8  =   1.98890
 a1  =   0.39810
 a2  =   4.42110
 -D3 energy without 3body term =     -0.2483854295 hartrees
 ----------------------------------------------------------------
             Standard Nuclear Orientation (Angstroms)
    I     Atom           X                Y                Z
 ----------------------------------------------------------------
    1      C       3.0648546000    -1.7468212000    -0.8829892000
    2      C       4.2853609000    -2.3038772000    -0.4961913000
    3      C       5.4729390000    -2.0482227000    -1.2293582000
    4      C       5.4013581000    -1.2943339000    -2.4086290000
    5      C       4.1936943000    -0.7061660000    -2.8045894000
    6      C       3.0344048000    -0.8589992000    -2.0233155000
    7      H       4.3002767000    -2.9278338000     0.4021751000
    8      O       1.9021996000    -0.2274461000    -2.2434662000
    9      C       6.8273963000    -2.3035478000    -0.6791290000
   10      O       7.8552643000    -2.3104720000    -1.3766074000
   11      N       6.8872263000    -2.4385285000     0.6891143000
   12      H       6.0219805000    -2.2204535000     1.1728731000
   13      C       8.0882239000    -2.0799953000     1.4361399000
   14      H       8.2444138000    -2.8024618000     2.2539235000
   15      H       8.9373736000    -2.1656089000     0.7437957000
   16      C       7.9761970000    -0.6573639000     2.0047312000
   17      H       8.8386546000    -0.4739573000     2.6676141000
   18      H       7.0791761000    -0.6100922000     2.6473777000
   19      C       7.8834134000     0.4595028000     0.9275039000
   20      H       7.8064854000     0.0054965000    -0.0730754000
   21      H       8.8231136000     1.0362774000     0.9299111000
   22      N       6.7757111000     1.4119094000     1.0572093000
   23      H       6.7781315000     1.7923207000     2.0076749000
   24      C       4.3440617000     1.8780382000     0.9609417000
   25      H       3.3682707000     1.3741755000     0.8730556000
   26      H       4.3936957000     2.2675851000     1.9947547000
   27      C       5.4539055000     0.8386035000     0.7894968000
   28      H       5.2214603000    -0.0334985000     1.4373750000
   29      H       5.4581613000     0.4484590000    -0.2415465000
   30      C       4.4115580000     3.0470245000    -0.0326612000
   31      H       3.9794471000     3.9545465000     0.4138332000
   32      H       5.4691952000     3.2699060000    -0.2519465000
   33      C       3.6766684000     2.7949810000    -1.3588500000
   34      H       4.0173035000     1.8560907000    -1.8160144000
   35      H       3.9111438000     3.6158631000    -2.0581969000
   36      N       2.2281191000     2.6923714000    -1.2082014000
   37      H       1.7624626000     1.8063881000    -1.4191432000
   38      C       1.4691631000     3.7457158000    -0.8329290000
   39      O       1.9444992000     4.8821686000    -0.6687079000
   40      C      -0.0165623000     3.4912823000    -0.6071602000
   41      H      -0.5613324000     3.7139517000    -1.5379294000
   42      H      -0.3331508000     4.2348971000     0.1358567000
   43      C      -1.8527035000     2.0008388000     0.3867381000
   44      H      -2.0082016000     0.9815846000     0.7681495000
   45      H      -1.9656306000     2.7172209000     1.2130941000
   46      C      -2.8778301000     2.3362140000    -0.6760370000
   47      O      -3.1041350000     3.5066866000    -1.0219310000
   48      N      -3.5155319000     1.2741833000    -1.2274388000
   49      C      -4.4800139000     1.3897366000    -2.3111180000
   50      H      -3.2520023000     0.3416518000    -0.9186610000
   51      C      -5.9159748000     1.0908289000    -1.8699935000
   52      H      -4.1856723000     0.6937136000    -3.1126844000
   53      H      -4.4014108000     2.4161292000    -2.6972095000
   54      C      -6.4581339000     2.0763940000    -0.8341386000
   55      H      -6.5613190000     1.1028867000    -2.7673497000
   56      H      -5.9579802000     0.0645730000    -1.4739718000
   57      C      -7.8341203000     1.6804388000    -0.2713565000
   58      H      -6.5369677000     3.0823965000    -1.2845312000
   59      H      -5.7349429000     2.1695195000    -0.0066987000
   60      H      -8.1904056000     2.4888920000     0.3931374000
   61      H      -8.5577847000     1.6147042000    -1.1033857000
   62      C      -5.8415242000    -2.2973998000    -0.0893568000
   63      C      -4.2475082000    -2.3633833000    -1.9824832000
   64      O      -6.8307514000    -2.2052108000    -0.8478590000
   65      C      -4.4537405000    -2.2191205000    -0.6036270000
   66      C      -2.9770981000    -2.1866972000    -2.5440561000
   67      C      -3.3473245000    -1.8941637000     0.2253965000
   68      C      -1.8744467000    -1.8386078000    -1.7394323000
   69      C      -2.0704386000    -1.7081315000    -0.3109210000
   70      H      -3.4683607000    -1.7215634000     1.2981697000
   71      O      -0.6679789000    -1.5865617000    -2.1926078000
   72      C      -0.3909741000     2.0610511000    -0.1593338000
   73      O      -0.2414225000     1.1713419000    -1.2186646000
   74      C       0.5184000000     1.6487016000     1.0369677000
   75      O       1.0605445000     0.4849177000     0.9285802000
   76      O       0.6650878000     2.4198320000     2.0008319000
   77      H       4.1481247000    -0.0644666000    -3.6893129000
   78      O       1.9161540000    -1.9324116000    -0.2491644000
   79      H      -2.8277964000    -2.2847023000    -3.6232769000
   80      O      -1.0088042000    -1.3571568000     0.3981876000
   81      Fe      0.4797277000    -0.6059448000    -0.7844158000
   82      N      -7.9118623000     0.4208953000     0.4759681000
   83      H      -7.7024295000    -0.3594075000    -0.1527663000
   84      N      -6.0048326000    -2.4538325000     1.2557616000
   85      H      -5.1738579000    -2.4966119000     1.8337784000
   86      C      -7.2702078000    -2.1941782000     1.9247661000
   87      H      -8.0577735000    -2.3076894000     1.1689668000
   88      H      -7.4342543000    -2.9623242000     2.6968379000
   89      C      -7.3316955000    -0.7986106000     2.5667351000
   90      H      -8.3474277000    -0.6584809000     2.9757867000
   91      H      -6.6284779000    -0.7619604000     3.4173413000
   92      C      -6.9978025000     0.3555984000     1.6179849000
   93      H      -7.0884397000     1.3030823000     2.1772284000
   94      H      -5.9319225000     0.2777540000     1.3186987000
   95      H      -5.1058366000    -2.5938159000    -2.6148737000
   96      H       6.3212826000    -1.1045713000    -2.9639862000
 ----------------------------------------------------------------
 Nuclear Repulsion Energy =        8406.78841673 hartrees
 There are      206 alpha and      201 beta electrons
 Requested basis set is non-standard
 There are 453 shells and 977 basis functions

 Total QAlloc Memory Limit   8000 MB
 Mega-Array Size       188 MB
 MEM_STATIC part       192 MB

 -----------------------------------------------------------------------
                STARTING GEOMETRY OPTIMIZER USING LIBOPT3
                by Peter F. McLaughlin, Yu Zhang, Evgeny Epifanovsky
 -----------------------------------------------------------------------

              Initial Energy and Gradient Calculation
   -- Checking Topology for Ill-Behaving Coordinates --

 -------------------------------------------
   Coordinate       |  Removed | Additions 
 -------------------------------------------
	Bonds                     0          0
	Angles                    1          0
	Torsions                  2          2
	Co-Linear Type5s          0          2
	Co-Linear Type6s          0          2
 -------------------------------------------

 ** Ill-Behaving Topology Definitions (No action needed.) **

  Ill-Defined Angles Removed: 
   8  81  80

  Ill-Defined Torsions Removed: 
   6   8  81  80,  69  80  81   8

     Done Checking Topology
 Adding empirical dispersion correction 
 ----------------------------------------------------------------
 Doing -D3(BJ) with
 s6  =   1.00000
 s8  =   1.98890
 a1  =   0.39810
 a2  =   4.42110
 -D3 energy without 3body term =     -0.2483854295 hartrees
 ----------------------------------------------------------------
             Standard Nuclear Orientation (Angstroms)
    I     Atom           X                Y                Z
 ----------------------------------------------------------------
    1      C       3.0648546000    -1.7468212000    -0.8829892000
    2      C       4.2853609000    -2.3038772000    -0.4961913000
    3      C       5.4729390000    -2.0482227000    -1.2293582000
    4      C       5.4013581000    -1.2943339000    -2.4086290000
    5      C       4.1936943000    -0.7061660000    -2.8045894000
    6      C       3.0344048000    -0.8589992000    -2.0233155000
    7      H       4.3002767000    -2.9278338000     0.4021751000
    8      O       1.9021996000    -0.2274461000    -2.2434662000
    9      C       6.8273963000    -2.3035478000    -0.6791290000
   10      O       7.8552643000    -2.3104720000    -1.3766074000
   11      N       6.8872263000    -2.4385285000     0.6891143000
   12      H       6.0219805000    -2.2204535000     1.1728731000
   13      C       8.0882239000    -2.0799953000     1.4361399000
   14      H       8.2444138000    -2.8024618000     2.2539235000
   15      H       8.9373736000    -2.1656089000     0.7437957000
   16      C       7.9761970000    -0.6573639000     2.0047312000
   17      H       8.8386546000    -0.4739573000     2.6676141000
   18      H       7.0791761000    -0.6100922000     2.6473777000
   19      C       7.8834134000     0.4595028000     0.9275039000
   20      H       7.8064854000     0.0054965000    -0.0730754000
   21      H       8.8231136000     1.0362774000     0.9299111000
   22      N       6.7757111000     1.4119094000     1.0572093000
   23      H       6.7781315000     1.7923207000     2.0076749000
   24      C       4.3440617000     1.8780382000     0.9609417000
   25      H       3.3682707000     1.3741755000     0.8730556000
   26      H       4.3936957000     2.2675851000     1.9947547000
   27      C       5.4539055000     0.8386035000     0.7894968000
   28      H       5.2214603000    -0.0334985000     1.4373750000
   29      H       5.4581613000     0.4484590000    -0.2415465000
   30      C       4.4115580000     3.0470245000    -0.0326612000
   31      H       3.9794471000     3.9545465000     0.4138332000
   32      H       5.4691952000     3.2699060000    -0.2519465000
   33      C       3.6766684000     2.7949810000    -1.3588500000
   34      H       4.0173035000     1.8560907000    -1.8160144000
   35      H       3.9111438000     3.6158631000    -2.0581969000
   36      N       2.2281191000     2.6923714000    -1.2082014000
   37      H       1.7624626000     1.8063881000    -1.4191432000
   38      C       1.4691631000     3.7457158000    -0.8329290000
   39      O       1.9444992000     4.8821686000    -0.6687079000
   40      C      -0.0165623000     3.4912823000    -0.6071602000
   41      H      -0.5613324000     3.7139517000    -1.5379294000
   42      H      -0.3331508000     4.2348971000     0.1358567000
   43      C      -1.8527035000     2.0008388000     0.3867381000
   44      H      -2.0082016000     0.9815846000     0.7681495000
   45      H      -1.9656306000     2.7172209000     1.2130941000
   46      C      -2.8778301000     2.3362140000    -0.6760370000
   47      O      -3.1041350000     3.5066866000    -1.0219310000
   48      N      -3.5155319000     1.2741833000    -1.2274388000
   49      C      -4.4800139000     1.3897366000    -2.3111180000
   50      H      -3.2520023000     0.3416518000    -0.9186610000
   51      C      -5.9159748000     1.0908289000    -1.8699935000
   52      H      -4.1856723000     0.6937136000    -3.1126844000
   53      H      -4.4014108000     2.4161292000    -2.6972095000
   54      C      -6.4581339000     2.0763940000    -0.8341386000
   55      H      -6.5613190000     1.1028867000    -2.7673497000
   56      H      -5.9579802000     0.0645730000    -1.4739718000
   57      C      -7.8341203000     1.6804388000    -0.2713565000
   58      H      -6.5369677000     3.0823965000    -1.2845312000
   59      H      -5.7349429000     2.1695195000    -0.0066987000
   60      H      -8.1904056000     2.4888920000     0.3931374000
   61      H      -8.5577847000     1.6147042000    -1.1033857000
   62      C      -5.8415242000    -2.2973998000    -0.0893568000
   63      C      -4.2475082000    -2.3633833000    -1.9824832000
   64      O      -6.8307514000    -2.2052108000    -0.8478590000
   65      C      -4.4537405000    -2.2191205000    -0.6036270000
   66      C      -2.9770981000    -2.1866972000    -2.5440561000
   67      C      -3.3473245000    -1.8941637000     0.2253965000
   68      C      -1.8744467000    -1.8386078000    -1.7394323000
   69      C      -2.0704386000    -1.7081315000    -0.3109210000
   70      H      -3.4683607000    -1.7215634000     1.2981697000
   71      O      -0.6679789000    -1.5865617000    -2.1926078000
   72      C      -0.3909741000     2.0610511000    -0.1593338000
   73      O      -0.2414225000     1.1713419000    -1.2186646000
   74      C       0.5184000000     1.6487016000     1.0369677000
   75      O       1.0605445000     0.4849177000     0.9285802000
   76      O       0.6650878000     2.4198320000     2.0008319000
   77      H       4.1481247000    -0.0644666000    -3.6893129000
   78      O       1.9161540000    -1.9324116000    -0.2491644000
   79      H      -2.8277964000    -2.2847023000    -3.6232769000
   80      O      -1.0088042000    -1.3571568000     0.3981876000
   81      Fe      0.4797277000    -0.6059448000    -0.7844158000
   82      N      -7.9118623000     0.4208953000     0.4759681000
   83      H      -7.7024295000    -0.3594075000    -0.1527663000
   84      N      -6.0048326000    -2.4538325000     1.2557616000
   85      H      -5.1738579000    -2.4966119000     1.8337784000
   86      C      -7.2702078000    -2.1941782000     1.9247661000
   87      H      -8.0577735000    -2.3076894000     1.1689668000
   88      H      -7.4342543000    -2.9623242000     2.6968379000
   89      C      -7.3316955000    -0.7986106000     2.5667351000
   90      H      -8.3474277000    -0.6584809000     2.9757867000
   91      H      -6.6284779000    -0.7619604000     3.4173413000
   92      C      -6.9978025000     0.3555984000     1.6179849000
   93      H      -7.0884397000     1.3030823000     2.1772284000
   94      H      -5.9319225000     0.2777540000     1.3186987000
   95      H      -5.1058366000    -2.5938159000    -2.6148737000
   96      H       6.3212826000    -1.1045713000    -2.9639862000
 ----------------------------------------------------------------
 Nuclear Repulsion Energy =        8406.78841673 hartrees
 There are      206 alpha and      201 beta electrons
 Using C-PCM dielectric factor f(eps) = (eps-1)/eps = 0.987243
No default van der Waals radius is available for Z = 26
	Found R = 2.4400 A in the $van_der_waals section
 Discretize the solute cavity surface with Lebedev spheres
	Using 110 Lebedev grid points for each H atom
	Using 194 Lebedev grid points for other atoms
	Atomic van der Waals radii (Bondi set) will be scaled by 1.20
 Using smooth SwiG surface discretization
 Remove points where switching function is < 1.0e-08
 Keep 5506 surface tesserae and discard 9422 interior tesserae
 Molecular Surface Area = 662.059 Angst**2

 Requested basis set is non-standard
 There are 453 shells and 977 basis functions
 A cutoff of  1.0D-12 yielded  64318 shell pairs
 There are    277594 function pairs (    307088 Cartesian)
 Smallest overlap matrix eigenvalue = 1.98E-04

 Scale SEOQF with 1.000000e-02/1.000000e-01/1.000000e-01

 Standard Electronic Orientation quadrupole field applied
 Nucleus-field energy     =     0.0000000662 hartrees
 ================ Generating on-the-fly SAD Guess ================
 Attempting to make child job directory: /data/scratch/C_FePB2_ccL_3sextet_b3lypD3bj_ccpVDZ_pcmH2O_opt_420230725134203//Frg1/
 Attempting to make child job directory: /data/scratch/C_FePB2_ccL_3sextet_b3lypD3bj_ccpVDZ_pcmH2O_opt_420230725134203//Frg2/
 Attempting to make child job directory: /data/scratch/C_FePB2_ccL_3sextet_b3lypD3bj_ccpVDZ_pcmH2O_opt_420230725134203//Frg3/
 Attempting to make child job directory: /data/scratch/C_FePB2_ccL_3sextet_b3lypD3bj_ccpVDZ_pcmH2O_opt_420230725134203//Frg4/
 Attempting to make child job directory: /data/scratch/C_FePB2_ccL_3sextet_b3lypD3bj_ccpVDZ_pcmH2O_opt_420230725134203//Frg5/
 Creating input file /data/scratch/C_FePB2_ccL_3sextet_b3lypD3bj_ccpVDZ_pcmH2O_opt_420230725134203/Frg1.input
 using default PutDataFrgm: nothing
 calling putenv with: QCSCRATCH=/data/scratch/C_FePB2_ccL_3sextet_b3lypD3bj_ccpVDZ_pcmH2O_opt_420230725134203/ 
 Spawning Job For Fragment 0
 Done Job For Fragment 0
 calling putenv with: QCSCRATCH=/data/scratch 
 calling putenv with: QCTHREADS=20 
 Creating input file /data/scratch/C_FePB2_ccL_3sextet_b3lypD3bj_ccpVDZ_pcmH2O_opt_420230725134203/Frg2.input
 using default PutDataFrgm: nothing
 calling putenv with: QCSCRATCH=/data/scratch/C_FePB2_ccL_3sextet_b3lypD3bj_ccpVDZ_pcmH2O_opt_420230725134203/ 
 Spawning Job For Fragment 1
 Done Job For Fragment 1
 calling putenv with: QCSCRATCH=/data/scratch 
 calling putenv with: QCTHREADS=20 
 Creating input file /data/scratch/C_FePB2_ccL_3sextet_b3lypD3bj_ccpVDZ_pcmH2O_opt_420230725134203/Frg3.input
 using default PutDataFrgm: nothing
 calling putenv with: QCSCRATCH=/data/scratch/C_FePB2_ccL_3sextet_b3lypD3bj_ccpVDZ_pcmH2O_opt_420230725134203/ 
 Spawning Job For Fragment 2
 Done Job For Fragment 2
 calling putenv with: QCSCRATCH=/data/scratch 
 calling putenv with: QCTHREADS=20 
 Creating input file /data/scratch/C_FePB2_ccL_3sextet_b3lypD3bj_ccpVDZ_pcmH2O_opt_420230725134203/Frg4.input
 using default PutDataFrgm: nothing
 calling putenv with: QCSCRATCH=/data/scratch/C_FePB2_ccL_3sextet_b3lypD3bj_ccpVDZ_pcmH2O_opt_420230725134203/ 
 Spawning Job For Fragment 3
 Done Job For Fragment 3
 calling putenv with: QCSCRATCH=/data/scratch 
 calling putenv with: QCTHREADS=20 
 Creating input file /data/scratch/C_FePB2_ccL_3sextet_b3lypD3bj_ccpVDZ_pcmH2O_opt_420230725134203/Frg5.input
 using default PutDataFrgm: nothing
 calling putenv with: QCSCRATCH=/data/scratch/C_FePB2_ccL_3sextet_b3lypD3bj_ccpVDZ_pcmH2O_opt_420230725134203/ 
 Spawning Job For Fragment 4
 Done Job For Fragment 4
 calling putenv with: QCSCRATCH=/data/scratch 
 calling putenv with: QCTHREADS=20 
 Time for running child jobs:  CPU 0.03 s  wall 70.03 s
 ============= Method Specific SAD Guess Constructed =============
 Guess from on-the-fly superposition of atomic densities
 Warning: Energy on first SCF cycle will be non-variational

 -----------------------------------------------------------------------
  General SCF calculation program by
  Eric Jon Sundstrom, Paul Horn, Yuezhi Mao, Dmitri Zuev, Alec White,
  David Stuck, Shaama M.S., Shane Yost, Joonho Lee, David Small,
  Daniel Levine, Susi Lehtola, Hugh Burton, Evgeny Epifanovsky,
  Bang C. Huynh
 -----------------------------------------------------------------------
 Exchange:     0.2000 Hartree-Fock + 0.0800 Slater + 0.7200 B88
 Correlation:  0.1900 VWN1RPA + 0.8100 LYP
 Using SG-1 standard quadrature grid
 Dispersion:   Grimme D3
 using 20 threads for integral computing
 -------------------------------------------------------
 OpenMP Integral computing Module                
 Release: version 1.0, May 2013, Q-Chem Inc. Pittsburgh 
 -------------------------------------------------------
 C-PCM solvent model [f = (eps-1)/eps], solve by matrix inversion
 A unrestricted SCF calculation will be
 performed using DIIS
 SCF converges when DIIS error is below 1.0e-08
 ---------------------------------------
  Cycle       Energy         DIIS error
 ---------------------------------------
    1   -3762.8339048815      1.41e-02  
    2   -3741.5581443215      1.72e-03  
    3   -3736.4603748537      4.56e-03  
    4   -3734.8864957614      4.08e-03  
    5   -3742.7333680620      6.72e-04  
    6   -3742.8472481619      4.70e-04  
    7   -3742.9379132857      1.30e-04  
    8   -3742.9425260683      7.99e-05  
    9   -3742.9444844527      4.23e-05  
   10   -3742.9450403989      2.18e-05  
   11   -3742.9452450698      5.85e-06  
   12   -3742.9452583939      2.52e-06  
   13   -3742.9452609841      1.33e-06  
   14   -3742.9452619301      6.37e-07  
   15   -3742.9452621320      3.80e-07  
   16   -3742.9452621946      1.81e-07  
   17   -3742.9452622113      6.92e-08  
   18   -3742.9452622165      5.14e-08  
   19   -3742.9452622181      2.45e-08  
   20   -3742.9452622186      9.52e-09  Convergence criterion met
 ---------------------------------------
 SCF time:   CPU 55781.17s  wall 3813.00s 
<S^2> =          8.757499822

************** Final PCM Free Energy Summary **************
 G_electrostatic  =      -0.50440299 hartree =    -316.51765450 kcal/mol
 G_cavitation     =       0.00000000 hartree =       0.00000000 kcal/mol
 G_dispersion     =       0.00000000 hartree =       0.00000000 kcal/mol
 G_repulsion      =       0.00000000 hartree =       0.00000000 kcal/mol
 --------------------------------------------------
 Non-electrostatic Free Energy =       0.00000000 hartree =       0.00000000 kcal/mol
 Total                         =      -0.50440299 hartree =    -316.51765450 kcal/mol
 --------------------------------------------------
 SCF Energy (H0 + V/2)                       =   -3742.94526222 
 Solute Internal Energy (H0)                 =   -3742.44085923 
 Total Free Energy (H0 + V/2 + non-elec)     =   -3742.94526222 hartree
                                             = -2348733.60147676 kcal/mol
***********************************************************

 SCF   energy in the final basis set =    -3742.9452622186
 Total energy in the final basis set =    -3742.9452622186
 
 --------------------------------------------------------------
 
                    Orbital Energies (a.u.)
 --------------------------------------------------------------
 
 Alpha MOs
 -- Occupied --
******** -30.1080 -25.9620 -25.9595 -25.9578 -19.0944 -19.0916 -19.0906
-19.0897 -19.0894 -19.0893 -19.0852 -19.0852 -19.0849 -19.0745 -19.0664
-14.3391 -14.3336 -14.3326 -14.3236 -14.2999 -14.2952 -10.2735 -10.2702
-10.2675 -10.2628 -10.2555 -10.2137 -10.2102 -10.2084 -10.2075 -10.2070
-10.2052 -10.2032 -10.2027 -10.1999 -10.1948 -10.1940 -10.1939 -10.1861
-10.1755 -10.1738 -10.1699 -10.1679 -10.1674 -10.1670 -10.1660 -10.1659
-10.1657 -10.1650 -10.1632 -10.1628 -10.1620 -10.1597 -10.1587 -10.1570
 -3.5900  -2.3678  -2.3630  -2.3597  -1.0237  -1.0175  -1.0150  -1.0134
 -1.0086  -0.9917  -0.9881  -0.9510  -0.9501  -0.9459  -0.9296  -0.9091
 -0.9065  -0.9033  -0.8941  -0.8868  -0.8866  -0.8176  -0.8153  -0.7784
 -0.7742  -0.7601  -0.7546  -0.7470  -0.7231  -0.7181  -0.7131  -0.7019
 -0.6965  -0.6936  -0.6830  -0.6646  -0.6524  -0.6273  -0.6195  -0.6010
 -0.5947  -0.5933  -0.5823  -0.5809  -0.5715  -0.5711  -0.5680  -0.5615
 -0.5553  -0.5520  -0.5472  -0.5367  -0.5093  -0.5068  -0.5013  -0.4842
 -0.4832  -0.4780  -0.4717  -0.4707  -0.4677  -0.4662  -0.4585  -0.4579
 -0.4570  -0.4547  -0.4511  -0.4489  -0.4448  -0.4423  -0.4406  -0.4377
 -0.4340  -0.4321  -0.4263  -0.4220  -0.4186  -0.4159  -0.4130  -0.4101
 -0.4085  -0.4067  -0.4058  -0.4025  -0.4019  -0.3987  -0.3965  -0.3934
 -0.3903  -0.3899  -0.3877  -0.3859  -0.3824  -0.3795  -0.3780  -0.3738
 -0.3724  -0.3700  -0.3671  -0.3657  -0.3647  -0.3631  -0.3608  -0.3580
 -0.3571  -0.3531  -0.3495  -0.3469  -0.3444  -0.3395  -0.3387  -0.3359
 -0.3341  -0.3322  -0.3304  -0.3299  -0.3252  -0.3206  -0.3160  -0.3143
 -0.3123  -0.3103  -0.3091  -0.3061  -0.3039  -0.2929  -0.2874  -0.2704
 -0.2639  -0.2540  -0.2517  -0.2488  -0.2467  -0.2459  -0.2429  -0.2412
 -0.2389  -0.2371  -0.2332  -0.2304  -0.2285  -0.2154  -0.2141  -0.2100
 -0.2082  -0.2059  -0.2046  -0.1924  -0.1621  -0.1605
 -- Virtual --
 -0.0104  -0.0065   0.0253   0.0287   0.0326   0.0413   0.0497   0.0609
  0.0640   0.0674   0.0716   0.0795   0.0806   0.0832   0.0836   0.0871
  0.0878   0.0918   0.0925   0.0989   0.1037   0.1081   0.1100   0.1131
  0.1164   0.1181   0.1229   0.1250   0.1273   0.1283   0.1326   0.1376
  0.1392   0.1407   0.1466   0.1491   0.1515   0.1535   0.1545   0.1595
  0.1613   0.1628   0.1639   0.1679   0.1695   0.1702   0.1715   0.1773
  0.1785   0.1801   0.1869   0.1914   0.1938   0.1957   0.2013   0.2027
  0.2069   0.2087   0.2115   0.2119   0.2204   0.2215   0.2274   0.2291
  0.2316   0.2321   0.2344   0.2404   0.2446   0.2466   0.2539   0.2549
  0.2602   0.2608   0.2626   0.2689   0.2730   0.2749   0.2761   0.2791
  0.2815   0.2866   0.2904   0.2930   0.2950   0.2971   0.3014   0.3060
  0.3103   0.3151   0.3172   0.3225   0.3268   0.3328   0.3356   0.3377
  0.3474   0.3561   0.3588   0.3637   0.3678   0.3733   0.3856   0.3878
  0.4000   0.4068   0.4098   0.4130   0.4163   0.4176   0.4216   0.4244
  0.4306   0.4335   0.4351   0.4380   0.4442   0.4476   0.4512   0.4533
  0.4570   0.4600   0.4623   0.4666   0.4680   0.4692   0.4760   0.4772
  0.4828   0.4836   0.4883   0.4925   0.4949   0.5000   0.5019   0.5047
  0.5086   0.5092   0.5162   0.5180   0.5190   0.5218   0.5273   0.5287
  0.5336   0.5384   0.5410   0.5434   0.5483   0.5547   0.5554   0.5565
  0.5608   0.5617   0.5686   0.5707   0.5718   0.5761   0.5773   0.5816
  0.5844   0.5859   0.5869   0.5888   0.5913   0.5986   0.5997   0.6024
  0.6064   0.6077   0.6108   0.6127   0.6169   0.6195   0.6222   0.6242
  0.6254   0.6275   0.6300   0.6331   0.6364   0.6396   0.6418   0.6447
  0.6460   0.6502   0.6506   0.6533   0.6544   0.6554   0.6578   0.6585
  0.6609   0.6628   0.6647   0.6670   0.6703   0.6722   0.6734   0.6767
  0.6785   0.6792   0.6824   0.6841   0.6876   0.6899   0.6909   0.6929
  0.6962   0.6994   0.7003   0.7013   0.7034   0.7053   0.7074   0.7118
  0.7147   0.7175   0.7203   0.7220   0.7266   0.7291   0.7301   0.7348
  0.7375   0.7415   0.7435   0.7469   0.7516   0.7546   0.7572   0.7623
  0.7658   0.7698   0.7705   0.7732   0.7815   0.7842   0.7864   0.7894
  0.7923   0.7958   0.8008   0.8077   0.8140   0.8232   0.8252   0.8352
  0.8358   0.8408   0.8448   0.8458   0.8499   0.8577   0.8660   0.8670
  0.8695   0.8705   0.8753   0.8804   0.8831   0.8904   0.8936   0.8968
  0.9005   0.9056   0.9110   0.9139   0.9164   0.9185   0.9205   0.9259
  0.9329   0.9371   0.9390   0.9438   0.9453   0.9559   0.9587   0.9621
  0.9674   0.9747   0.9818   0.9831   0.9892   1.0001   1.0075   1.0086
  1.0119   1.0155   1.0170   1.0221   1.0296   1.0336   1.0377   1.0442
  1.0461   1.0478   1.0516   1.0569   1.0611   1.0654   1.0696   1.0734
  1.0788   1.0811   1.0874   1.0888   1.0909   1.1044   1.1086   1.1100
  1.1146   1.1169   1.1207   1.1231   1.1286   1.1304   1.1334   1.1374
  1.1393   1.1440   1.1458   1.1524   1.1564   1.1614   1.1666   1.1673
  1.1700   1.1772   1.1810   1.1852   1.1903   1.1953   1.1982   1.2034
  1.2104   1.2127   1.2153   1.2172   1.2216   1.2224   1.2249   1.2294
  1.2372   1.2398   1.2433   1.2460   1.2521   1.2544   1.2558   1.2617
  1.2641   1.2682   1.2741   1.2823   1.2831   1.2906   1.2929   1.2964
  1.3038   1.3047   1.3102   1.3211   1.3233   1.3324   1.3388   1.3396
  1.3548   1.3567   1.3595   1.3610   1.3680   1.3718   1.3744   1.3775
  1.3849   1.3869   1.3982   1.3994   1.4061   1.4133   1.4186   1.4238
  1.4267   1.4309   1.4390   1.4448   1.4521   1.4533   1.4552   1.4586
  1.4706   1.4734   1.4813   1.4822   1.4861   1.4889   1.4940   1.4976
  1.5062   1.5086   1.5127   1.5171   1.5206   1.5287   1.5317   1.5354
  1.5383   1.5423   1.5441   1.5517   1.5534   1.5570   1.5596   1.5648
  1.5720   1.5728   1.5774   1.5791   1.5835   1.5885   1.5920   1.5936
  1.5945   1.6028   1.6054   1.6085   1.6116   1.6145   1.6202   1.6239
  1.6291   1.6313   1.6331   1.6348   1.6392   1.6402   1.6440   1.6464
  1.6476   1.6533   1.6540   1.6586   1.6597   1.6618   1.6643   1.6699
  1.6714   1.6721   1.6777   1.6799   1.6818   1.6833   1.6860   1.6913
  1.6921   1.6942   1.6949   1.7019   1.7038   1.7046   1.7067   1.7076
  1.7120   1.7130   1.7183   1.7211   1.7222   1.7248   1.7266   1.7301
  1.7318   1.7324   1.7337   1.7373   1.7397   1.7413   1.7446   1.7465
  1.7489   1.7509   1.7550   1.7589   1.7611   1.7642   1.7669   1.7718
  1.7756   1.7795   1.7833   1.7853   1.7873   1.7893   1.7928   1.7955
  1.7994   1.8008   1.8043   1.8071   1.8089   1.8117   1.8181   1.8191
  1.8247   1.8272   1.8297   1.8332   1.8360   1.8392   1.8426   1.8455
  1.8505   1.8527   1.8559   1.8611   1.8640   1.8677   1.8685   1.8751
  1.8835   1.8849   1.8886   1.8906   1.8957   1.8960   1.9031   1.9073
  1.9139   1.9163   1.9235   1.9245   1.9268   1.9332   1.9356   1.9374
  1.9422   1.9465   1.9528   1.9548   1.9594   1.9665   1.9669   1.9689
  1.9714   1.9756   1.9839   1.9892   1.9907   1.9994   2.0031   2.0044
  2.0055   2.0102   2.0151   2.0199   2.0257   2.0284   2.0335   2.0376
  2.0395   2.0412   2.0452   2.0539   2.0594   2.0620   2.0650   2.0701
  2.0857   2.0890   2.0893   2.0964   2.0980   2.1010   2.1097   2.1153
  2.1179   2.1199   2.1234   2.1294   2.1338   2.1353   2.1401   2.1433
  2.1471   2.1591   2.1630   2.1708   2.1721   2.1752   2.1803   2.1890
  2.1921   2.2004   2.2073   2.2109   2.2110   2.2186   2.2221   2.2263
  2.2287   2.2310   2.2394   2.2428   2.2508   2.2536   2.2562   2.2624
  2.2667   2.2737   2.2740   2.2824   2.2864   2.2945   2.2977   2.3000
  2.3051   2.3143   2.3182   2.3218   2.3288   2.3299   2.3327   2.3419
  2.3456   2.3515   2.3567   2.3640   2.3691   2.3713   2.3813   2.3883
  2.3922   2.4008   2.4079   2.4097   2.4205   2.4250   2.4322   2.4359
  2.4433   2.4465   2.4523   2.4571   2.4656   2.4714   2.4779   2.4834
  2.4855   2.4886   2.4946   2.5020   2.5145   2.5184   2.5201   2.5258
  2.5363   2.5392   2.5432   2.5450   2.5516   2.5547   2.5661   2.5742
  2.5773   2.5845   2.5865   2.5973   2.6029   2.6170   2.6183   2.6208
  2.6242   2.6315   2.6342   2.6417   2.6466   2.6552   2.6569   2.6669
  2.6735   2.6875   2.6937   2.6972   2.7033   2.7052   2.7117   2.7141
  2.7181   2.7233   2.7341   2.7385   2.7417   2.7453   2.7513   2.7569
  2.7598   2.7655   2.7677   2.7730   2.7800   2.7835   2.7845   2.7888
  2.7897   2.7952   2.8005   2.8048   2.8085   2.8185   2.8343   2.8383
  2.8391   2.8486   2.8618   2.8752   2.8789   2.9243   2.9310   2.9382
  2.9434   2.9552   2.9673   2.9811   2.9888   3.0097   3.0192   3.0253
  3.0531   3.0698   3.0713   3.0918   3.1000   3.1049   3.1192   3.1264
  3.1313   3.1320   3.1504   3.1557   3.1590   3.1698   3.1752   3.1983
  3.2075   3.2371   3.2433   3.2851   3.2862   3.2979   3.3979   3.4342
  3.4381   3.4452   3.4540   3.4596   3.4631   3.4698   3.4766   3.4869
  3.4877   3.4906   3.4997   3.5081   3.5171   3.5350   3.5443   3.5901
  3.6305   3.7077   3.7166
 
 Beta MOs
 -- Occupied --
******** -30.0148 -25.8831 -25.8822 -25.8811 -19.0944 -19.0915 -19.0897
-19.0876 -19.0857 -19.0855 -19.0852 -19.0810 -19.0809 -19.0741 -19.0612
-14.3391 -14.3336 -14.3326 -14.3236 -14.2999 -14.2952 -10.2735 -10.2702
-10.2675 -10.2628 -10.2555 -10.2137 -10.2102 -10.2084 -10.2075 -10.2071
-10.2052 -10.2033 -10.2027 -10.1999 -10.1948 -10.1940 -10.1939 -10.1861
-10.1755 -10.1738 -10.1698 -10.1678 -10.1674 -10.1669 -10.1659 -10.1658
-10.1657 -10.1650 -10.1630 -10.1628 -10.1620 -10.1595 -10.1584 -10.1568
 -3.3731  -2.1359  -2.1354  -2.1336  -1.0207  -1.0174  -1.0149  -1.0133
 -1.0085  -0.9851  -0.9814  -0.9431  -0.9420  -0.9390  -0.9234  -0.9091
 -0.9064  -0.9033  -0.8938  -0.8868  -0.8866  -0.8168  -0.8144  -0.7782
 -0.7741  -0.7595  -0.7543  -0.7458  -0.7227  -0.7175  -0.7124  -0.7011
 -0.6954  -0.6925  -0.6827  -0.6644  -0.6522  -0.6270  -0.6194  -0.6003
 -0.5941  -0.5923  -0.5816  -0.5802  -0.5712  -0.5709  -0.5674  -0.5614
 -0.5546  -0.5511  -0.5457  -0.5366  -0.5060  -0.5047  -0.4990  -0.4833
 -0.4816  -0.4732  -0.4698  -0.4683  -0.4656  -0.4632  -0.4571  -0.4546
 -0.4537  -0.4507  -0.4480  -0.4460  -0.4415  -0.4399  -0.4355  -0.4352
 -0.4314  -0.4275  -0.4222  -0.4178  -0.4163  -0.4132  -0.4084  -0.4049
 -0.4042  -0.4022  -0.4002  -0.3991  -0.3949  -0.3938  -0.3921  -0.3908
 -0.3866  -0.3851  -0.3843  -0.3819  -0.3784  -0.3752  -0.3717  -0.3673
 -0.3662  -0.3621  -0.3609  -0.3582  -0.3544  -0.3532  -0.3499  -0.3456
 -0.3431  -0.3400  -0.3399  -0.3343  -0.3341  -0.3320  -0.3301  -0.3276
 -0.3232  -0.3161  -0.3142  -0.3122  -0.3112  -0.3099  -0.3068  -0.3035
 -0.2930  -0.2869  -0.2745  -0.2674  -0.2604  -0.2570  -0.2518  -0.2504
 -0.2480  -0.2459  -0.2445  -0.2404  -0.2387  -0.2367  -0.2359  -0.2330
 -0.2300  -0.2172  -0.2149  -0.2106  -0.2090  -0.2066  -0.1994  -0.1658
 -0.1598
 -- Virtual --
 -0.0507  -0.0486  -0.0426  -0.0107  -0.0053  -0.0022   0.0030   0.0275
  0.0310   0.0335   0.0415   0.0511   0.0613   0.0645   0.0688   0.0721
  0.0802   0.0812   0.0834   0.0840   0.0874   0.0880   0.0921   0.0934
  0.0992   0.1040   0.1082   0.1103   0.1133   0.1167   0.1183   0.1232
  0.1252   0.1276   0.1284   0.1327   0.1377   0.1394   0.1410   0.1468
  0.1493   0.1518   0.1538   0.1548   0.1597   0.1615   0.1629   0.1642
  0.1682   0.1698   0.1705   0.1717   0.1775   0.1791   0.1807   0.1874
  0.1918   0.1943   0.1962   0.2023   0.2032   0.2073   0.2091   0.2120
  0.2124   0.2212   0.2263   0.2277   0.2307   0.2318   0.2335   0.2374
  0.2420   0.2457   0.2482   0.2545   0.2552   0.2608   0.2609   0.2641
  0.2708   0.2739   0.2767   0.2772   0.2801   0.2824   0.2879   0.2916
  0.2935   0.2957   0.2975   0.3045   0.3114   0.3132   0.3198   0.3219
  0.3245   0.3323   0.3343   0.3389   0.3445   0.3519   0.3568   0.3621
  0.3669   0.3705   0.3760   0.3876   0.3948   0.4019   0.4089   0.4115
  0.4149   0.4182   0.4189   0.4241   0.4251   0.4331   0.4347   0.4363
  0.4390   0.4454   0.4494   0.4517   0.4549   0.4575   0.4611   0.4634
  0.4676   0.4691   0.4705   0.4768   0.4778   0.4842   0.4848   0.4890
  0.4930   0.4953   0.5007   0.5040   0.5060   0.5096   0.5127   0.5174
  0.5186   0.5203   0.5228   0.5281   0.5309   0.5342   0.5390   0.5415
  0.5446   0.5489   0.5554   0.5559   0.5567   0.5619   0.5632   0.5694
  0.5714   0.5734   0.5771   0.5779   0.5821   0.5850   0.5863   0.5874
  0.5891   0.5926   0.5989   0.6007   0.6033   0.6072   0.6080   0.6111
  0.6139   0.6179   0.6201   0.6225   0.6249   0.6259   0.6285   0.6311
  0.6335   0.6373   0.6400   0.6424   0.6451   0.6470   0.6508   0.6514
  0.6536   0.6547   0.6557   0.6585   0.6588   0.6611   0.6635   0.6651
  0.6675   0.6711   0.6725   0.6741   0.6773   0.6790   0.6797   0.6828
  0.6852   0.6886   0.6907   0.6914   0.6948   0.6970   0.6998   0.7009
  0.7027   0.7039   0.7062   0.7079   0.7129   0.7160   0.7181   0.7207
  0.7225   0.7284   0.7295   0.7308   0.7355   0.7380   0.7420   0.7441
  0.7478   0.7527   0.7558   0.7584   0.7641   0.7664   0.7703   0.7721
  0.7756   0.7825   0.7854   0.7877   0.7903   0.7947   0.7969   0.8067
  0.8082   0.8185   0.8260   0.8279   0.8362   0.8371   0.8427   0.8458
  0.8482   0.8511   0.8589   0.8668   0.8683   0.8724   0.8737   0.8810
  0.8820   0.8865   0.8930   0.8958   0.9006   0.9031   0.9067   0.9123
  0.9153   0.9178   0.9201   0.9233   0.9277   0.9339   0.9379   0.9401
  0.9452   0.9470   0.9572   0.9603   0.9633   0.9686   0.9763   0.9839
  0.9868   0.9906   1.0032   1.0085   1.0103   1.0135   1.0168   1.0187
  1.0237   1.0302   1.0347   1.0399   1.0453   1.0478   1.0502   1.0529
  1.0581   1.0627   1.0662   1.0713   1.0759   1.0801   1.0824   1.0894
  1.0921   1.0936   1.1057   1.1095   1.1107   1.1167   1.1178   1.1216
  1.1235   1.1302   1.1316   1.1342   1.1382   1.1405   1.1457   1.1471
  1.1535   1.1582   1.1623   1.1674   1.1694   1.1720   1.1783   1.1833
  1.1871   1.1912   1.1969   1.1995   1.2058   1.2129   1.2145   1.2172
  1.2208   1.2231   1.2261   1.2285   1.2310   1.2382   1.2408   1.2452
  1.2467   1.2536   1.2566   1.2601   1.2631   1.2668   1.2714   1.2774
  1.2846   1.2864   1.2930   1.2961   1.2993   1.3064   1.3116   1.3126
  1.3233   1.3269   1.3389   1.3410   1.3420   1.3554   1.3581   1.3638
  1.3655   1.3717   1.3741   1.3782   1.3831   1.3897   1.3928   1.4005
  1.4024   1.4083   1.4189   1.4241   1.4252   1.4276   1.4341   1.4406
  1.4463   1.4540   1.4550   1.4585   1.4611   1.4726   1.4760   1.4842
  1.4863   1.4907   1.4937   1.4951   1.5019   1.5134   1.5153   1.5198
  1.5237   1.5258   1.5326   1.5359   1.5390   1.5409   1.5454   1.5474
  1.5525   1.5546   1.5634   1.5653   1.5664   1.5765   1.5779   1.5788
  1.5834   1.5863   1.5920   1.5937   1.5967   1.6034   1.6061   1.6079
  1.6134   1.6171   1.6187   1.6251   1.6256   1.6322   1.6335   1.6351
  1.6376   1.6405   1.6441   1.6477   1.6494   1.6522   1.6544   1.6566
  1.6602   1.6622   1.6656   1.6687   1.6702   1.6725   1.6765   1.6799
  1.6821   1.6838   1.6846   1.6886   1.6920   1.6931   1.6950   1.6968
  1.7036   1.7052   1.7059   1.7084   1.7088   1.7127   1.7162   1.7197
  1.7231   1.7237   1.7272   1.7292   1.7319   1.7334   1.7345   1.7365
  1.7382   1.7401   1.7439   1.7457   1.7497   1.7514   1.7526   1.7586
  1.7607   1.7642   1.7660   1.7696   1.7736   1.7769   1.7815   1.7845
  1.7880   1.7909   1.7939   1.7961   1.7988   1.8002   1.8017   1.8060
  1.8085   1.8114   1.8150   1.8199   1.8246   1.8265   1.8300   1.8318
  1.8342   1.8369   1.8432   1.8433   1.8470   1.8531   1.8547   1.8569
  1.8617   1.8667   1.8685   1.8718   1.8774   1.8840   1.8854   1.8909
  1.8917   1.8972   1.8977   1.9051   1.9108   1.9153   1.9177   1.9253
  1.9253   1.9295   1.9358   1.9372   1.9384   1.9435   1.9488   1.9538
  1.9570   1.9607   1.9684   1.9701   1.9703   1.9738   1.9783   1.9855
  1.9913   1.9946   2.0021   2.0042   2.0060   2.0080   2.0138   2.0216
  2.0234   2.0277   2.0296   2.0349   2.0388   2.0404   2.0426   2.0481
  2.0564   2.0616   2.0638   2.0682   2.0722   2.0872   2.0899   2.0910
  2.0972   2.0989   2.1023   2.1110   2.1168   2.1185   2.1207   2.1256
  2.1296   2.1344   2.1360   2.1406   2.1454   2.1498   2.1607   2.1648
  2.1729   2.1734   2.1768   2.1820   2.1909   2.1939   2.2011   2.2085
  2.2125   2.2161   2.2207   2.2235   2.2277   2.2301   2.2328   2.2413
  2.2441   2.2515   2.2551   2.2570   2.2632   2.2677   2.2745   2.2772
  2.2840   2.2879   2.2952   2.2988   2.3013   2.3069   2.3155   2.3200
  2.3229   2.3323   2.3332   2.3344   2.3445   2.3482   2.3523   2.3598
  2.3664   2.3702   2.3722   2.3815   2.3910   2.3936   2.4010   2.4099
  2.4112   2.4249   2.4290   2.4353   2.4365   2.4451   2.4490   2.4533
  2.4613   2.4660   2.4730   2.4781   2.4852   2.4865   2.4890   2.4951
  2.5035   2.5153   2.5194   2.5243   2.5277   2.5383   2.5409   2.5448
  2.5459   2.5525   2.5581   2.5672   2.5764   2.5787   2.5863   2.5871
  2.5978   2.6034   2.6174   2.6187   2.6214   2.6253   2.6347   2.6361
  2.6431   2.6497   2.6559   2.6577   2.6676   2.6741   2.6888   2.6961
  2.6980   2.7056   2.7087   2.7132   2.7210   2.7285   2.7302   2.7353
  2.7471   2.7497   2.7521   2.7542   2.7609   2.7643   2.7686   2.7760
  2.7774   2.7857   2.7861   2.7897   2.7905   2.7929   2.7989   2.8041
  2.8103   2.8150   2.8188   2.8409   2.8419   2.8451   2.8540   2.8740
  2.8758   2.8855   2.9308   2.9392   2.9437   2.9551   2.9600   2.9727
  2.9878   3.0062   3.0473   3.0529   3.0595   3.0703   3.0928   3.1001
  3.1047   3.1055   3.1162   3.1271   3.1318   3.1438   3.1541   3.1604
  3.1751   3.1778   3.1897   3.1962   3.2178   3.2401   3.2651   3.2731
  3.2900   3.3032   3.3680   3.4387   3.4452   3.4510   3.4580   3.4638
  3.4676   3.4777   3.4828   3.4878   3.4908   3.4913   3.5024   3.5167
  3.5189   3.5446   3.5535   3.6055   3.6348   3.6683   3.7130   3.7213
 --------------------------------------------------------------
 
          Ground-State Mulliken Net Atomic Charges

     Atom                 Charge (a.u.)    Spin (a.u.)
  --------------------------------------------------------
      1 C                     0.135356      -0.000111
      2 C                    -0.081907       0.017502
      3 C                    -0.040035       0.003873
      4 C                     0.001666       0.002907
      5 C                    -0.037460       0.010251
      6 C                     0.123935       0.002844
      7 H                    -0.054291      -0.000258
      8 O                    -0.449175       0.110175
      9 C                     0.145759       0.000326
     10 O                    -0.367455       0.001586
     11 N                    -0.149895       0.000235
     12 H                     0.111748      -0.000013
     13 C                     0.094345      -0.000021
     14 H                     0.012766       0.000026
     15 H                     0.017299      -0.000000
     16 C                    -0.034189       0.000011
     17 H                     0.006816       0.000006
     18 H                     0.016177      -0.000001
     19 C                     0.070672       0.000009
     20 H                     0.012073      -0.000017
     21 H                     0.000031      -0.000001
     22 N                    -0.232448       0.000046
     23 H                     0.084422      -0.000004
     24 C                    -0.036636       0.000063
     25 H                     0.038138      -0.000011
     26 H                    -0.012217      -0.000005
     27 C                     0.047954       0.000149
     28 H                    -0.006575       0.000008
     29 H                     0.041799      -0.000020
     30 C                     0.005138       0.000025
     31 H                    -0.011962       0.000001
     32 H                    -0.022465       0.000008
     33 C                     0.090095       0.000020
     34 H                     0.020408      -0.000107
     35 H                    -0.002134      -0.000017
     36 N                    -0.134550      -0.000183
     37 H                     0.143992       0.002233
     38 C                     0.079986      -0.000434
     39 O                    -0.382122       0.000119
     40 C                     0.174200       0.003286
     41 H                     0.017739       0.000320
     42 H                    -0.013821       0.001510
     43 C                     0.132619       0.004250
     44 H                     0.016622       0.000083
     45 H                    -0.003487       0.000587
     46 C                     0.113970      -0.000025
     47 O                    -0.378009       0.000073
     48 N                    -0.130202       0.000167
     49 C                     0.108771      -0.000042
     50 H                     0.130804       0.000232
     51 C                    -0.034246       0.000035
     52 H                     0.014173      -0.000034
     53 H                     0.006295       0.000023
     54 C                    -0.024160       0.000003
     55 H                    -0.002060       0.000008
     56 H                     0.021193       0.000006
     57 C                     0.085730      -0.000002
     58 H                    -0.008153      -0.000000
     59 H                     0.010319       0.000007
     60 H                     0.001611       0.000002
     61 H                    -0.004503       0.000001
     62 C                     0.161450       0.000176
     63 C                     0.018749       0.001053
     64 O                    -0.371477       0.001250
     65 C                    -0.020988       0.005481
     66 C                    -0.036294       0.010345
     67 C                    -0.090778       0.011172
     68 C                     0.127574       0.002158
     69 C                     0.106578       0.004446
     70 H                    -0.055837      -0.000007
     71 O                    -0.439160       0.109075
     72 C                    -0.112492       0.004129
     73 O                    -0.511019       0.162214
     74 C                     0.201594       0.004061
     75 O                    -0.376830       0.080624
     76 O                    -0.401815       0.013337
     77 H                    -0.047916      -0.000056
     78 O                    -0.460148       0.123115
     79 H                    -0.051989      -0.000073
     80 O                    -0.449410       0.117858
     81 Fe                    0.444172       4.186946
     82 N                    -0.256248       0.000011
     83 H                     0.081773       0.000022
     84 N                    -0.132323       0.000415
     85 H                     0.109731      -0.000005
     86 C                     0.090959      -0.000018
     87 H                     0.019823      -0.000001
     88 H                     0.018674       0.000008
     89 C                     0.003910       0.000046
     90 H                     0.002218       0.000014
     91 H                     0.006897      -0.000001
     92 C                     0.053966       0.000000
     93 H                     0.010121       0.000003
     94 H                     0.008262      -0.000030
     95 H                    -0.066983       0.000315
     96 H                    -0.065207       0.000210
  --------------------------------------------------------
  Sum of atomic charges =    -3.000000
  Sum of spin   charges =     5.000000

 -----------------------------------------------------------------
                    Cartesian Multipole Moments
 -----------------------------------------------------------------
    Charge (ESU x 10^10)
               -14.4096
    Dipole Moment (Debye)
         X      -7.4755      Y      -4.0124      Z      14.1561
       Tot      16.5039
    Quadrupole Moments (Debye-Ang)
        XX    -526.5724     XY       7.7108     YY    -439.0920
        XZ      18.6167     YZ     -25.3876     ZZ    -353.5250
    Octopole Moments (Debye-Ang^2)
       XXX     -85.7821    XXY     233.6628    XYY    -109.1353
       YYY    -324.1494    XXZ     565.0975    XYZ     -36.0229
       YYZ     205.4797    XZZ     -67.6926    YZZ     -22.9750
       ZZZ     398.2236
    Hexadecapole Moments (Debye-Ang^3)
      XXXX  -56557.7421   XXXY    1088.5891   XXYY  -10455.0503
      XYYY     -28.7449   YYYY  -10326.1623   XXXZ    1731.9116
      XXYZ    -905.0872   XYYZ      18.6409   YYYZ      -9.2025
      XXZZ   -8173.8301   XYZZ     205.4193   YYZZ   -2229.4195
      XZZZ     100.4789   YZZZ    -189.1863   ZZZZ   -4360.1102
 -----------------------------------------------------------------
 Calculating analytic gradient of the SCF energy
 Gradient of SCF Energy
            1           2           3           4           5           6
    1   0.0312563  -0.0282199  -0.0627625   0.0137202  -0.0183781   0.0249973
    2  -0.0322231   0.0122886   0.0435956  -0.0047043  -0.0020925   0.0151560
    3   0.0114745   0.0076100  -0.0290905   0.0081586   0.0206239  -0.0277041
            7           8           9          10          11          12
    1  -0.0016489   0.0602612   0.1098192  -0.1213166  -0.0456513   0.0596881
    2   0.0386633  -0.0488493  -0.0176283   0.0152408   0.0393986  -0.0151618
    3  -0.0623879   0.0374747  -0.0377848   0.0805970  -0.0073972  -0.0324355
           13          14          15          16          17          18
    1   0.0163090  -0.0061176  -0.0388759  -0.0010052  -0.0296968   0.0352396
    2  -0.0137770   0.0268337   0.0016630  -0.0059087  -0.0069051  -0.0009297
    3   0.0033819  -0.0314993   0.0243039   0.0211363  -0.0215217  -0.0244148
           19          20          21          22          23          24
    1   0.0125250   0.0056501  -0.0378445  -0.0019301   0.0013765  -0.0257265
    2   0.0139830   0.0210018  -0.0231492  -0.0129311  -0.0202762  -0.0144566
    3  -0.0334532   0.0463377  -0.0004763   0.0452440  -0.0529471   0.0183597
           25          26          27          28          29          30
    1   0.0600225  -0.0017053  -0.0317495   0.0125619   0.0028112   0.0113337
    2   0.0342352  -0.0224601  -0.0220642   0.0385040   0.0255296   0.0266793
    3   0.0055036  -0.0548996  -0.0131120  -0.0311019   0.0592101  -0.0012958
           31          32          33          34          35          36
    1   0.0199464  -0.0503183   0.0110748  -0.0210085  -0.0159154  -0.0528519
    2  -0.0492092  -0.0137908   0.0037228   0.0589713  -0.0466931  -0.0424668
    3  -0.0299728   0.0141124  -0.0199542   0.0281202   0.0406325   0.0023220
           37          38          39          40          41          42
    1   0.0446561   0.0587545  -0.0620457  -0.0073299   0.0358079   0.0240114
    2   0.0899755   0.1049402  -0.1736181   0.0331664  -0.0158029  -0.0489986
    3   0.0094777   0.0087252  -0.0165263  -0.0096398   0.0640445  -0.0491186
           43          44          45          46          47          48
    1  -0.0171137   0.0083554   0.0088263  -0.0561877   0.0430676   0.0500651
    2  -0.0106717   0.0663946  -0.0436825   0.0952107  -0.1606394  -0.0282398
    3   0.0302684  -0.0251051  -0.0527568  -0.0305801   0.0388060   0.0268050
           49          50          51          52          53          54
    1   0.0034599  -0.0289263   0.0065826  -0.0161127   0.0004145   0.0109806
    2   0.0019428   0.0874072  -0.0152825   0.0381852  -0.0533562   0.0199160
    3  -0.0260363  -0.0221074  -0.0147253   0.0446743   0.0261005   0.0067291
           55          56          57          58          59          60
    1   0.0271800  -0.0033652  -0.0219686   0.0049368  -0.0344984   0.0133215
    2  -0.0020464   0.0471951   0.0113907  -0.0420518  -0.0038365  -0.0313190
    3   0.0387650  -0.0196213   0.0006053   0.0199502  -0.0383791  -0.0247741
           61          62          63          64          65          66
    1   0.0283258  -0.0924406  -0.0153582   0.0978687   0.0695300   0.0171968
    2   0.0026510  -0.0117039   0.0023619   0.0090222  -0.0046998   0.0110894
    3   0.0326209  -0.0273308   0.0060675   0.0709102  -0.0473296   0.0143033
           67          68          69          70          71          72
    1   0.0229716  -0.0138680  -0.0324927   0.0072765  -0.0703516  -0.0267521
    2   0.0228010  -0.0157611  -0.0156196  -0.0080984   0.0056756   0.0212189
    3   0.0018139  -0.0363331   0.0299569  -0.0681665   0.0573901  -0.0047655
           73          74          75          76          77          78
    1   0.0059916   0.0684972  -0.0536936  -0.0304020  -0.0012202   0.0523171
    2  -0.0093148   0.0473212   0.0906152  -0.1246062  -0.0448885   0.0412265
    3   0.0284377   0.1616165  -0.0148262  -0.1737003   0.0614419  -0.0492697
           79          80          81          82          83          84
    1  -0.0058184  -0.0423270   0.0104845   0.0369038  -0.0182450   0.0448247
    2   0.0075973  -0.0053148  -0.0105597  -0.0196977   0.0402930   0.0151340
    3   0.0736207  -0.0648952  -0.0102901  -0.0401514   0.0369080  -0.0043679
           85          86          87          88          89          90
    1  -0.0542846  -0.0191856   0.0349341   0.0059607  -0.0020397   0.0341996
    2  -0.0018903  -0.0136048   0.0045716   0.0268276   0.0058150  -0.0050011
    3  -0.0363284   0.0004162   0.0276535  -0.0281688   0.0092136  -0.0147356
           91          92          93          94          95          96
    1  -0.0241583   0.0199280   0.0032322  -0.0397637   0.0479486  -0.0547328
    2  -0.0015597   0.0093724  -0.0364015   0.0023300   0.0137952  -0.0169657
    3  -0.0293960   0.0169975  -0.0227440   0.0133270   0.0429937   0.0383752
 Max gradient component =       1.737E-01
 RMS gradient           =       4.126E-02
 Computing fast CPCM-SWIG gradient
 Updating gradient with PCM contributions...
 -- total gradient after adding PCM contribution --
---------------------------------------------------
  Atom         X              Y              Z     
---------------------------------------------------
   1       0.000048      -0.000112      -0.000021
   2      -0.000145      -0.000064      -0.000009
   3       0.000154       0.000087       0.000068
   4      -0.000002       0.000023       0.000023
   5      -0.000055      -0.000047      -0.000033
   6      -0.000079       0.000104      -0.000168
   7       0.000043       0.000041       0.000025
   8       0.000064      -0.000014       0.000020
   9      -0.000096       0.000048      -0.000040
  10       0.000016      -0.000018       0.000000
  11      -0.000009      -0.000178       0.000012
  12       0.000014       0.000089      -0.000003
  13      -0.000025       0.000036      -0.000051
  14       0.000003       0.000006      -0.000009
  15       0.000007       0.000021       0.000024
  16       0.000009      -0.000021       0.000050
  17      -0.000001       0.000022      -0.000047
  18       0.000006       0.000032       0.000003
  19      -0.000002      -0.000132       0.000047
  20       0.000042       0.000028      -0.000024
  21      -0.000012       0.000024      -0.000007
  22       0.000014       0.000103      -0.000076
  23      -0.000011      -0.000024       0.000005
  24       0.000020       0.000106      -0.000029
  25       0.000010      -0.000015      -0.000002
  26      -0.000049      -0.000047       0.000016
  27      -0.000015      -0.000076       0.000003
  28       0.000022       0.000034       0.000028
  29      -0.000019       0.000009      -0.000004
  30       0.000016       0.000003      -0.000121
  31       0.000002      -0.000009       0.000022
  32      -0.000016      -0.000010       0.000020
  33       0.000014      -0.000038       0.000028
  34      -0.000006       0.000010      -0.000026
  35      -0.000011       0.000009       0.000017
  36       0.000014      -0.000018       0.000015
  37       0.000002      -0.000001       0.000025
  38      -0.000031      -0.000006      -0.000041
  39      -0.000000       0.000025      -0.000034
  40       0.000040       0.000066      -0.000015
  41       0.000003      -0.000012       0.000004
  42      -0.000020      -0.000019      -0.000007
  43      -0.000067      -0.000010       0.000028
  44       0.000002       0.000016       0.000001
  45       0.000004       0.000019      -0.000021
  46       0.000133      -0.000037      -0.000135
  47      -0.000037      -0.000009       0.000024
  48      -0.000074       0.000032       0.000113
  49       0.000037       0.000005      -0.000016
  50      -0.000026      -0.000071       0.000018
  51       0.000069      -0.000190      -0.000073
  52      -0.000001       0.000040      -0.000036
  53      -0.000020      -0.000002       0.000022
  54      -0.000110       0.000019      -0.000053
  55       0.000001       0.000048       0.000025
  56       0.000004       0.000024       0.000058
  57       0.000017      -0.000017       0.000003
  58       0.000036       0.000010       0.000012
  59       0.000008       0.000050       0.000008
  60       0.000012      -0.000017       0.000005
  61       0.000000       0.000026       0.000002
  62       0.000052       0.000067      -0.000012
  63       0.000023      -0.000062       0.000032
  64      -0.000009      -0.000001       0.000026
  65      -0.000155       0.000055      -0.000054
  66       0.000063      -0.000022       0.000025
  67       0.000160      -0.000040       0.000050
  68       0.000009      -0.000113      -0.000073
  69      -0.000060       0.000094       0.000098
  70      -0.000030      -0.000036       0.000004
  71       0.000001       0.000104       0.000074
  72       0.000150      -0.000041       0.000135
  73      -0.000108       0.000060      -0.000076
  74       0.000008       0.000065      -0.000154
  75      -0.000084      -0.000092       0.000049
  76      -0.000015       0.000008       0.000014
  77       0.000018      -0.000006       0.000005
  78       0.000031       0.000050       0.000046
  79      -0.000019       0.000015       0.000006
  80      -0.000042      -0.000008       0.000003
  81       0.000079      -0.000135       0.000056
  82      -0.000051       0.000012       0.000034
  83       0.000027       0.000008       0.000007
  84       0.000007      -0.000059       0.000053
  85      -0.000006       0.000059       0.000020
  86       0.000032       0.000077      -0.000162
  87      -0.000016      -0.000019       0.000070
  88       0.000001       0.000007       0.000032
  89       0.000041      -0.000219       0.000120
  90      -0.000015       0.000049      -0.000076
  91      -0.000045       0.000069       0.000024
  92      -0.000051       0.000107      -0.000063
  93       0.000063      -0.000006       0.000017
  94       0.000004      -0.000019      -0.000022
  95      -0.000018       0.000002       0.000021
  96       0.000005      -0.000027      -0.000004
---------------------------------------------------
 Number of fixed atoms: 0
 Gradient time:  CPU 44755.27 s  wall 2341.01 s

 *****************************************************
             Starting BFGS Algorithm
 *****************************************************
            LIBOPT3 RUN PARAMETERS

  Geometry Optimization Coordinates :
	Delocalized Natural Internal Coordinates

  Step Length Selection Method :
	Eigenvector Following Algorithm

  Convergence Criteria :
	Max Gradient Component    	3.00000000e-04
	Max Displacement Component	1.20000000e-03
	Absolute Energy Difference	1.00000000e-06

  Initial Hessian :
	Approximate Hessian - Simple Internal Coordinate Scaled

  Type of Verification :
	Verify with final updated Hessian
 *****************************************************

	OPTIMIZATION CYCLE:	1

 Scaling Magnitude of Eigenvalues
 	Minimum: -25.00000000	 Maximum: 25.00000000
 282 Hessian Eigenvalues to form next step
   0.10000000   0.10000000   0.10000000   0.10000000   0.10000000
   0.10000000   0.10000000   0.10000000   0.10000000   0.10000000
   0.10000000   0.10000000   0.10000000   0.10000000   0.10000000
   0.10000000   0.10000005   0.10000014   0.10000038   0.10000048
   0.10000072   0.10000081   0.10000260   0.10000281   0.10000486
   0.10000561   0.10000880   0.10000921   0.10001107   0.10001251
   0.10001939   0.10004215   0.10004562   0.10005409   0.10005804
   0.10006216   0.10007478   0.10009045   0.10010526   0.10016181
   0.10020259   0.10021314   0.10038202   0.10048516   0.10071706
   0.10093594   0.10312087   0.10350866   0.10464565   0.10530577
   0.10589319   0.10622976   0.10888063   0.10907692   0.10969042
   0.11253015   0.11406158   0.11422290   0.11494905   0.11613454
   0.11817942   0.11875458   0.11881883   0.11964065   0.12017419
[...]
  30       0.000007      -0.000008      -0.000069
  31       0.000000      -0.000004       0.000007
  32      -0.000005      -0.000005       0.000004
  33       0.000011      -0.000023       0.000013
  34      -0.000006       0.000004      -0.000027
  35      -0.000006       0.000010       0.000012
  36       0.000014      -0.000006       0.000019
  37      -0.000000      -0.000006       0.000021
  38      -0.000023       0.000015      -0.000036
  39      -0.000004      -0.000015      -0.000038
  40       0.000020       0.000043       0.000005
  41       0.000003      -0.000005      -0.000002
  42      -0.000015      -0.000010      -0.000006
  43      -0.000047       0.000006       0.000019
  44       0.000015       0.000011       0.000005
  45      -0.000007       0.000022      -0.000024
  46       0.000096      -0.000054      -0.000089
  47      -0.000017       0.000014       0.000012
  48      -0.000073       0.000015       0.000087
  49       0.000021      -0.000018      -0.000023
  50      -0.000023      -0.000005       0.000007
  51       0.000041      -0.000135      -0.000039
  52       0.000001       0.000029      -0.000030
  53      -0.000015       0.000000       0.000027
  54      -0.000078       0.000009      -0.000035
  55       0.000001       0.000027       0.000009
  56       0.000004       0.000031       0.000043
  57       0.000024      -0.000009       0.000001
  58       0.000023       0.000003       0.000004
  59       0.000004       0.000040       0.000002
  60       0.000009      -0.000007       0.000008
  61      -0.000006       0.000018       0.000005
  62       0.000036       0.000027       0.000007
  63       0.000009      -0.000052       0.000024
  64      -0.000005       0.000002      -0.000009
  65      -0.000082       0.000048      -0.000029
  66       0.000033      -0.000028       0.000015
  67       0.000080      -0.000043       0.000030
  68       0.000013      -0.000088      -0.000037
  69      -0.000024       0.000067       0.000065
  70      -0.000011      -0.000024       0.000007
  71       0.000004       0.000087       0.000067
  72       0.000113      -0.000028       0.000094
  73      -0.000067       0.000043      -0.000057
  74       0.000012       0.000037      -0.000113
  75      -0.000078      -0.000059       0.000046
  76      -0.000001      -0.000004      -0.000008
  77       0.000008      -0.000004       0.000004
  78       0.000028       0.000037       0.000047
  79      -0.000013       0.000010       0.000007
  80      -0.000038      -0.000012       0.000008
  81       0.000087      -0.000131       0.000060
  82      -0.000054       0.000009       0.000029
  83       0.000021       0.000004       0.000006
  84       0.000003      -0.000067       0.000032
  85      -0.000006       0.000055       0.000018
  86       0.000036       0.000059      -0.000068
  87      -0.000010      -0.000012       0.000049
  88       0.000008       0.000002       0.000023
  89       0.000024      -0.000127       0.000065
  90      -0.000026       0.000039      -0.000074
  91      -0.000034       0.000049       0.000024
  92      -0.000030       0.000082      -0.000033
  93       0.000052      -0.000000       0.000015
  94      -0.000003      -0.000016      -0.000020
  95      -0.000009       0.000002       0.000013
  96       0.000000      -0.000020      -0.000007
---------------------------------------------------
 Number of fixed atoms: 0
 Gradient time:  CPU 44870.80 s  wall 2349.60 s

     Step 1	:
        Energy is -3742.9452656356
                            Maximum         Tolerance       Converged?
         Gradient           7.49212730e-05	3.00000000e-04	true
         Displacement       7.92013544e-04	1.20000000e-03	true
         Energy change      3.41702798e-06	1.00000000e-06	false

	 Optimization Converged in 1 cycles

 *****************************************************
             End of BFGS Algorithm
 *****************************************************
		----------------------------------
		   Verification of Optimization
		----------------------------------

 Eigenvalues of Hessian in Optimization Verification
   0.02585416   0.10000000   0.10000000   0.10000000   0.10000000
   0.10000000   0.10000000   0.10000000   0.10000000   0.10000000
   0.10000000   0.10000000   0.10000000   0.10000000   0.10000000
   0.10000004   0.10000014   0.10000036   0.10000048   0.10000063
   0.10000077   0.10000242   0.10000277   0.10000470   0.10000557
   0.10000879   0.10000901   0.10001078   0.10001220   0.10001783
   0.10003562   0.10004530   0.10005230   0.10005748   0.10006062
   0.10007276   0.10008988   0.10010317   0.10010898   0.10019271
   0.10020060   0.10036830   0.10047027   0.10067878   0.10084694
   0.10245592   0.10284337   0.10378855   0.10464335   0.10536505
   0.10584122   0.10627022   0.10891273   0.10926884   0.11030694
   0.11186200   0.11399176   0.11442175   0.11495497   0.11612251
   0.11794351   0.11875880   0.11922916   0.11952485   0.12012084
   0.12096664   0.12163784   0.12200581   0.12258223   0.12299688
   0.12398465   0.12435542   0.12476594   0.12521659   0.12579525
   0.12653692   0.12658214   0.12694357   0.12712704   0.12765575
   0.12790741   0.12872724   0.12907734   0.12918114   0.12953042
   0.13009802   0.13036894   0.13130344   0.13334955   0.13395228
   0.13543534   0.13703690   0.13892680   0.14217987   0.14426466
   0.14873356   0.14956676   0.15077269   0.15120517   0.15202539
   0.15255109   0.15275742   0.15292778   0.15297698   0.15425360
   0.15586144   0.15602260   0.15627828   0.15671105   0.15769964
   0.15771385   0.15796524   0.15880459   0.16042565   0.16143560
   0.16166256   0.16924453   0.16964018   0.17280965   0.17407462
   0.17525635   0.17657505   0.17711717   0.17736504   0.17761429
   0.17838121   0.17856596   0.17918340   0.17954177   0.18003759
   0.18061239   0.18188512   0.18193572   0.18257300   0.18387422
   0.18496949   0.18575518   0.18823080   0.18985627   0.19040750
   0.19284159   0.19414009   0.19662607   0.19755827   0.19791329
   0.19855694   0.19905625   0.19926409   0.19959127   0.19972036
   0.19974782   0.19975097   0.19976456   0.19978213   0.19985167
   0.19989844   0.19992430   0.19993024   0.19994808   0.19996023
   0.19997445   0.19998256   0.19999006   0.19999262   0.19999434
   0.19999540   0.19999924   0.20000000   0.20000000   0.20000000
   0.20000000   0.20000000   0.20000000   0.20000000   0.20000000
   0.20000000   0.20000000   0.20000001   0.26126868   0.26625684
   0.38386215   0.39522155   0.40869530   0.41336672   0.42390556
   0.43517959   0.44755069   0.45120692   0.45906830   0.46613273
   0.46801909   0.46855166   0.48298439   0.48755751   0.48873824
   0.49084025   0.49305094   0.49442241   0.49768643   0.49843399
   0.49907136   0.49939212   0.49980809   0.49999123   0.50000000
   0.50000000   0.50000000   0.50000000   0.50000000   0.50000000
   0.50000000   0.50000000   0.50000000   0.50000000   0.50000000
   0.50000000   0.50000000   0.50000000   0.50000000   0.50000000
   0.50000000   0.50000000   0.50000000   0.50000000   0.50000000
   0.50000000   0.50000000   0.50000000   0.50000000   0.50000000
   0.50000000   0.50000000   0.50000000   0.50000000   0.50000000
   0.50000000   0.50000000   0.50000000   0.50000000   0.50000000
   0.50000000   0.50000000   0.50000000   0.50000000   0.50000000
   0.50000000   0.50000000   0.50000000   0.50000000   0.50000000
   0.50000000   0.50000000   0.50000000   0.50000000   0.50000000
   0.50000000   0.50000000   0.50000000   0.50000000   0.50000000
   0.50000000   0.50000000   0.50000000   0.50000000   0.50000000
   0.50000000   0.50000000   0.50000000   0.50000000   0.50000000
   0.50000000   0.50000000   0.50000000   0.50000000   0.50000000
   0.50000000   0.50000000   0.50000000   0.50000000   0.50293834
   0.51661185   0.53615795

 Found a minimum
		---------------------------------
		       End of Verification
		---------------------------------

 Final energy is -3742.945265635642

	******************************
	**  OPTIMIZATION CONVERGED  **
	******************************
 Adding empirical dispersion correction 
 ----------------------------------------------------------------
 Doing -D3(BJ) with
 s6  =   1.00000
 s8  =   1.98890
 a1  =   0.39810
 a2  =   4.42110
 -D3 energy without 3body term =     -0.2483722389 hartrees
 ----------------------------------------------------------------
             Standard Nuclear Orientation (Angstroms)
    I     Atom           X                Y                Z
 ----------------------------------------------------------------
    1      C       3.0648119917    -1.7466327823    -0.8828284034
    2      C       4.2853226351    -2.3038316867    -0.4960795002
    3      C       5.4728687560    -2.0482903036    -1.2292247616
    4      C       5.4014101130    -1.2942121626    -2.4083939438
    5      C       4.1938117461    -0.7058732950    -2.8042613513
    6      C       3.0344522283    -0.8587795129    -2.0230893827
    7      H       4.2999545403    -2.9280208451     0.4021377804
    8      O       1.9021853063    -0.2273428696    -2.2434483102
    9      C       6.8273970096    -2.3036105260    -0.6789064785
   10      O       7.8552424439    -2.3103988363    -1.3763917513
   11      N       6.8872034436    -2.4384756496     0.6893557426
   12      H       6.0218616547    -2.2206700636     1.1730546423
   13      C       8.0881796080    -2.0800313181     1.4364597756
   14      H       8.2443207062    -2.8025078613     2.2542567461
   15      H       8.9372968935    -2.1657471436     0.7440695699
   16      C       7.9761422777    -0.6573748331     2.0049826992
   17      H       8.8385754312    -0.4740680873     2.6679694585
   18      H       7.0791022778    -0.6101661050     2.6476063571
   19      C       7.8833553047     0.4594521077     0.9276777448
   20      H       7.8063029045     0.0052288197    -0.0727892500
   21      H       8.8230996549     1.0361538706     0.9299991478
   22      N       6.7756432887     1.4117614532     1.0573487187
   23      H       6.7781063008     1.7923820445     2.0077291564
   24      C       4.3441271836     1.8779675257     0.9609361791
   25      H       3.3682280668     1.3742966015     0.8731417823
   26      H       4.3939281759     2.2678552063     1.9946111608
   27      C       5.4538685355     0.8384384401     0.7896433917
   28      H       5.2213238076    -0.0336263796     1.4375556154
   29      H       5.4581915285     0.4481144709    -0.2413354994
   30      C       4.4117182344     3.0467669540    -0.0328847443
   31      H       3.9797150336     3.9544758963     0.4133220625
   32      H       5.4693698624     3.2695064381    -0.2523668717
   33      C       3.6767960347     2.7946270155    -1.3590884396
   34      H       4.0173373614     1.8556204633    -1.8160997934
   35      H       3.9114288349     3.6153722876    -2.0585585570
   36      N       2.2282213339     2.6921543292    -1.2084851410
   37      H       1.7624993925     1.8062150972    -1.4195160777
   38      C       1.4693734506     3.7455261534    -0.8331079010
   39      O       1.9448859053     4.8818552302    -0.6687074680
   40      C      -0.0164365017     3.4913206448    -0.6074696118
   41      H      -0.5610515647     3.7141545775    -1.5383068050
   42      H      -0.3328964592     4.2350355024     0.1355109244
   43      C      -1.8528353474     2.0012398355     0.3863346742
   44      H      -2.0084219733     0.9819657966     0.7676941683
   45      H      -1.9656906261     2.7175646426     1.2127535409
   46      C      -2.8780772329     2.3369773017    -0.6762707073
   47      O      -3.1041567243     3.5075617939    -1.0219648553
   48      N      -3.5158071223     1.2750923329    -1.2279396259
   49      C      -4.4806141700     1.3905542419    -2.3113432140
   50      H      -3.2520699029     0.3426553965    -0.9192700202
   51      C      -5.9164735647     1.0914931969    -1.8699219946
   52      H      -4.1863971331     0.6944890313    -3.1129209829
   53      H      -4.4021339972     2.4169585969    -2.6974490716
   54      C      -6.4585676618     2.0766652819    -0.8337540840
   55      H      -6.5619326055     1.1034104172    -2.7672231188
   56      H      -5.9581853480     0.0651160306    -1.4741689486
   57      C      -7.8344065307     1.6803196582    -0.2708740496
   58      H      -6.5377938030     3.0827194658    -1.2839570125
   59      H      -5.7352479839     2.1696727101    -0.0064363619
   60      H      -8.1908008035     2.4886091645     0.3937863588
   61      H      -8.5581761267     1.6145023944    -1.1028084474
   62      C      -5.8413977609    -2.2979734111    -0.0895154242
   63      C      -4.2473304913    -2.3637680880    -1.9826586374
   64      O      -6.8305610619    -2.2058365252    -0.8481125531
   65      C      -4.4535544567    -2.2195315808    -0.6037715055
   66      C      -2.9769368903    -2.1869658457    -2.5441962266
   67      C      -3.3472787791    -1.8942490275     0.2251763849
   68      C      -1.8742884647    -1.8387739285    -1.7395435319
   69      C      -2.0703217161    -1.7082858066    -0.3111091988
   70      H      -3.4681736222    -1.7213973654     1.2979308857
   71      O      -0.6677779126    -1.5868451553    -2.1927119955
   72      C      -0.3910869864     2.0611843774    -0.1596477432
   73      O      -0.2413489108     1.1713073003    -1.2187816800
   74      C       0.5183142475     1.6488744457     1.0367969734
   75      O       1.0605933477     0.4851834094     0.9284097448
   76      O       0.6651326364     2.4201095450     2.0005366215
   77      H       4.1481864632    -0.0641077185    -3.6889406203
   78      O       1.9160958052    -1.9323969470    -0.2490935683
   79      H      -2.8275082488    -2.2851337704    -3.6233879559
   80      O      -1.0087574214    -1.3572206213     0.3980896616
   81      Fe      0.4797399989    -0.6059303057    -0.7844393903
   82      N      -7.9117775681     0.4206386728     0.4762472217
   83      H      -7.7023363907    -0.3595674994    -0.1526063064
   84      N      -6.0046315249    -2.4542421190     1.2556363026
   85      H      -5.1735414378    -2.4971702258     1.8334796877
   86      C      -7.2698579270    -2.1944462955     1.9249614357
   87      H      -8.0574619881    -2.3078886966     1.1691501705
   88      H      -7.4338020630    -2.9626170744     2.6970088773
   89      C      -7.3313039737    -0.7987804148     2.5668428681
   90      H      -8.3470034790    -0.6588616093     2.9760887004
   91      H      -6.6279199945    -0.7623173320     3.4173382877
   92      C      -6.9976179115     0.3554434090     1.6182019097
   93      H      -7.0885317999     1.3029035454     2.1774578198
   94      H      -5.9317425199     0.2778774780     1.3188723977
   95      H      -5.1055462411    -2.5944092981    -2.6151172497
   96      H       6.3213389682    -1.1043558789    -2.9637034238
 ----------------------------------------------------------------
 Nuclear Repulsion Energy =        8406.66404821 hartrees
 There are      206 alpha and      201 beta electrons

Z-matrix Print:
$molecule
-3 6
Fe
O  1 1.966519
C  2 1.391426 1 116.700339
C  3 1.544732 2 110.201855 1 141.553776 0
H  4 1.097852 3 111.165737 2 167.587948 0
H  4 1.101235 3 108.206200 2 50.366340 0
C  4 1.524193 3 115.705846 2 -72.042255 0
O  7 1.242732 4 120.392159 3 -151.273059 0
N  7 1.351425 4 117.290259 3 28.487335 0
H  9 1.022898 7 118.472544 4 6.407840 0
C  9 1.459983 7 122.078021 4 -175.487788 0
H  11 1.098436 9 106.889023 7 -171.409245 0
H  11 1.103600 9 109.179186 7 -55.027471 0
C  11 1.537043 9 113.385368 7 66.522828 0
H  14 1.099847 11 107.315134 9 -55.860093 0
H  14 1.102911 11 108.659511 9 -171.118391 0
C  14 1.535689 11 114.360925 9 66.935877 0
H  17 1.101713 14 109.594745 11 -34.693986 0
H  17 1.105883 14 109.547241 11 -150.592106 0
C  17 1.530192 14 114.373345 11 87.825089 0
H  20 1.102401 17 110.369145 14 -55.833669 0
H  20 1.111020 17 108.430657 14 -171.009080 0
N  20 1.465419 17 111.586633 14 64.016941 0
H  23 1.023768 20 108.494355 17 57.682012 0
C  23 1.466538 20 114.272758 17 179.211164 0
H  25 1.101449 23 107.173213 20 54.015240 0
H  25 1.102592 23 107.694315 20 167.791766 0
C  25 1.554509 23 116.765215 20 -69.445857 0
H  28 1.103152 25 110.107529 23 -109.121262 0
H  28 1.104479 25 108.907154 23 6.888281 0
C  28 1.536139 25 114.408300 23 128.227182 0
H  31 1.098978 28 111.208324 25 55.244696 0
H  31 1.102336 28 110.044533 25 174.712646 0
N  31 1.459106 28 110.914941 25 -63.841699 0
H  34 1.014998 31 113.891534 28 -47.055811 0
C  34 1.376193 31 121.384136 28 96.345077 0
O  36 1.242175 34 121.451222 31 24.262337 0
C  36 1.484178 34 115.161629 31 -151.238832 0
C  38 1.401492 36 116.811982 34 150.014598 0
H  39 1.091184 38 118.607536 36 11.879439 0
C  39 1.400410 38 120.520825 36 -162.940441 0
H  41 1.093893 39 120.734299 38 176.059447 0
C  41 1.406316 39 120.543364 38 0.192599 0
O  43 1.315028 41 124.369848 39 172.427439 0
C  38 1.418827 36 122.771905 34 -17.663008 0
H  45 1.093901 38 121.055383 36 -15.515581 0
C  45 1.396314 38 121.105542 36 163.265449 0
O  47 1.325020 45 124.706329 38 -179.698447 0
C  3 1.558361 2 110.633990 1 20.907911 0
O  49 1.243042 3 120.001225 2 169.954847 0
O  49 1.288406 3 114.834403 2 -10.542686 0
C  3 1.561537 2 110.018958 1 -95.298562 0
H  52 1.099346 3 106.819937 2 62.683150 0
H  52 1.099466 3 109.504876 2 -179.186604 0
C  52 1.514256 3 112.328988 2 -58.852486 0
O  55 1.241324 52 121.858213 3 -77.980274 0
N  55 1.355964 52 115.486431 3 101.368245 0
H  57 1.016992 55 118.200691 52 -1.683222 0
C  57 1.455317 55 123.541457 52 -176.655350 0
H  59 1.099428 57 106.749327 55 11.878813 0
H  59 1.101634 57 108.330097 55 128.401779 0
C  59 1.531660 57 113.044692 55 -109.836384 0
H  62 1.100823 59 108.734243 57 -59.506248 0
H  62 1.105400 59 108.140288 57 -174.465246 0
C  62 1.529076 59 113.693565 57 63.527441 0
H  65 1.102858 62 109.278283 59 -50.673277 0
H  65 1.105036 62 109.628492 59 65.113705 0
C  65 1.538459 62 113.515351 59 -173.210593 0
H  68 1.104667 65 109.010671 62 -59.007098 0
H  68 1.105496 65 108.657934 62 -174.769975 0
N  68 1.466619 65 117.054292 62 62.982833 0
H  71 1.023740 68 109.321419 65 -64.496554 0
C  71 1.464240 68 113.740753 65 56.946617 0
H  73 1.103953 71 107.785971 68 46.705810 0
H  73 1.109822 71 113.101942 68 -70.142777 0
C  73 1.530849 71 112.381526 68 166.053548 0
H  76 1.103950 73 109.554948 71 -61.303322 0
H  76 1.104274 73 108.272224 71 -177.948422 0
C  76 1.537423 73 114.646838 71 60.093182 0
H  79 1.097470 76 110.651517 73 -66.474733 0
H  79 1.101372 76 109.544735 73 174.947266 0
N  79 1.454747 76 112.890519 73 53.141936 0
H  82 1.013142 79 117.296374 76 65.056349 0
C  82 1.364001 79 122.504212 76 -97.655200 0
O  84 1.249961 82 120.813890 79 -15.647970 0
C  84 1.482134 82 117.406342 79 163.330607 0
C  86 1.401664 84 118.271717 82 165.793177 0
H  87 1.090749 86 118.451419 84 -4.039160 0
C  87 1.400173 86 120.999390 84 174.526865 0
H  89 1.093902 87 120.548287 86 -178.988795 0
C  89 1.408736 87 120.817751 86 -0.977275 0
O  91 1.313201 89 124.711018 87 -176.297586 0
C  86 1.420144 84 122.617228 82 -19.632233 0
H  93 1.093296 86 121.521182 84 2.286331 0
C  93 1.397428 86 121.218721 84 -174.076335 0
O  95 1.324058 93 124.219302 86 177.458848 0
$end

 -----------------------------------------------------------------------
                  END OF GEOMETRY OPTIMIZER USING LIBOPT3               
 -----------------------------------------------------------------------
 Total job time:  12024.47s(wall), 197181.69s(cpu) 
 Tue Jul 25 17:02:29 2023

        *************************************************************
        *                                                           *
        *  Thank you very much for using Q-Chem.  Have a nice day.  *
        *                                                           *
        *************************************************************


