
Running Job 1 of 1 FeH2O6_freq.in
qchem FeH2O6_freq.in_489661.0 /data/scratch/FeH2O6_freq20240531085620/ 0
/opt/qchem/6.0.1/exe/qcprog.exe_s FeH2O6_freq.in_489661.0 /data/scratch/FeH2O6_freq20240531085620/
                  Welcome to Q-Chem
     A Quantum Leap Into The Future Of Chemistry


 Q-Chem 6.0, Q-Chem, Inc., Pleasanton, CA (2022)

 E. Epifanovsky,  A. T. B. Gilbert,  Xintian Feng,  Joonho Lee,  Yuezhi Mao,  
 N. Mardirossian,  P. Pokhilko,  A. White,  M. Wormit,  M. P. Coons,  
 A. L. Dempwolff,  Zhengting Gan,  D. Hait,  P. R. Horn,  L. D. Jacobson,  
 I. Kaliman,  J. Kussmann,  A. W. Lange,  Ka Un Lao,  D. S. Levine,  Jie Liu,  
 S. C. McKenzie,  A. F. Morrison,  K. Nanda,  F. Plasser,  D. R. Rehn,  
 M. L. Vidal,  Zhi-Qiang You,  Ying Zhu,  B. Alam,  B. Albrecht,  
 A. Aldossary,  E. Alguire,  J. H. Andersen,  V. Athavale,  D. Barton,  
 K. Begam,  A. Behn,  N. Bellonzi,  Y. A. Bernard,  E. J. Berquist,  
 H. Burton,  A. Carreras,  K. Carter-Fenk,  Romit Chakraborty,  
 Chandrima Chakravarty,  Junhan Chen,  A. D. Chien,  K. D. Closser,  
 V. Cofer-Shabica,  L. Cunha,  S. Dasgupta,  Jia Deng,  M. de Wergifosse,  
 M. Diedenhofen,  Hainam Do,  S. Ehlert,  Po-Tung Fang,  S. Fatehi,  
 Qingguo Feng,  T. Friedhoff,  B. Ganoe,  J. Gayvert,  Qinghui Ge,  
 G. Gidofalvi,  M. Goldey,  J. Gomes,  C. Gonzalez-Espinoza,  S. Gulania,  
 A. Gunina,  J. A. Gyamfi,  M. W. D. Hanson-Heine,  P. H. P. Harbach,  
 A. W. Hauser,  M. F. Herbst,  M. Hernandez Vera,  M. Hodecker,  
 Z. C. Holden,  S. Houck,  Xunkun Huang,  Kerwin Hui,  B. C. Huynh,  
 K. Ikeda,  M. Ivanov,  Hyunjun Ji,  Zuxin Jin,  Hanjie Jiang,  B. Kaduk,  
 S. Kaehler,  R. Kang,  K. Khistyaev,  Jaehoon Kim,  Yongbin Kim,  
 P. Klunzinger,  Z. Koczor-Benda,  Joong Hoon Koh,  D. Kosenkov,  
 Saikiran Kotaru,  L. Koulias,  T. Kowalczyk,  C. M. Krauter,  K. Kue,  
 A. Kunitsa,  T. Kus,  A. Landau,  K. V. Lawler,  D. Lefrancois,  S. Lehtola,  
 Rain Li,  Shaozhi Li,  Yi-Pei Li,  Jiashu Liang,  M. Liebenthal,  
 Hung-Hsuan Lin,  You-Sheng Lin,  Fenglai Liu,  Kuan-Yu Liu,  
 M. Loipersberger,  A. Luenser,  C. Malbon,  A. Manjanath,  P. Manohar,  
 E. Mansoor,  S. F. Manzer,  Shan-Ping Mao,  A. V. Marenich,  T. Markovich,  
 S. Mason,  F. Matz,  S. A. Maurer,  P. F. McLaughlin,  M. F. S. J. Menger,  
 J.-M. Mewes,  S. A. Mewes,  P. Morgante,  Mohammad Mostafanejad,  
 J. W. Mullinax,  K. J. Oosterbaan,  G. Paran,  V. Parravicini,  
 Alexander C. Paul,  Suranjan K. Paul,  F. Pavosevic,  Zheng Pei,  S. Prager,  
 E. I. Proynov,  E. Ramos,  B. Rana,  A. E. Rask,  A. Rettig,  R. M. Richard,  
 F. Rob,  E. Rossomme,  T. Scheele,  M. Scheurer,  M. Schneider,  
 P. E. Schneider,  N. Sergueev,  S. M. Sharada,  Hengyuan Shen,  
 W. Skomorowski,  D. W. Small,  C. J. Stein,  Yingli Su,  Yu-Chuan Su,  
 E. J. Sundstrom,  Zhen Tao,  J. Thirman,  Hung-Yi Tsai,  T. Tsuchimochi,  
 N. M. Tubman,  C. Utku,  S. P. Veccham,  O. Vydrov,  J. Wenzel,  
 Jonathan Wong,  J. Witte,  A. Yamada,  Chou-Hsun Yang,  Kun Yao,  
 S. Yeganeh,  S. R. Yost,  A. Zech,  F. Zeller,  Igor Ying Zhang,  
 Xing Zhang,  Yu Zhang,  D. Zuev,  A. Aspuru-Guzik,  A. T. Bell,  
 N. A. Besley,  K. B. Bravaya,  B. R. Brooks,  D. Casanova,  Jeng-Da Chai,  
 Hsing-Ta Chen,  S. Coriani,  C. J. Cramer,  A. E. DePrince, III,  
 R. A. DiStasio Jr.,  A. Dreuw,  B. D. Dunietz,  T. R. Furlani,  
 W. A. Goddard III,  S. Grimme,  S. Hammes-Schiffer,  T. Head-Gordon,  
 W. J. Hehre,  Chao-Ping Hsu,  T.-C. Jagau,  Yousung Jung,  A. Klamt,  
 Jing Kong,  D. S. Lambrecht,  Xiangyuan Li,  WanZhen Liang,  N. J. Mayhall,  
 C. W. McCurdy,  J. B. Neaton,  T. Neudecker,  C. Ochsenfeld,  
 J. A. Parkhill,  R. Peverati,  V. A. Rassolov,  Haisheng Ren,  Yihan Shao,  
 L. V. Slipchenko,  R. P. Steele,  J. E. Subotnik,  A. J. W. Thom,  
 A. Tkatchenko,  D. G. Truhlar,  T. Van Voorhis,  Fan Wang,  
 T. A. Wesolowski,  K. B. Whaley,  H. L. Woodcock III,  P. M. Zimmerman,  
 S. Faraji,  P. M. W. Gill,  M. Head-Gordon,  J. M. Herbert,  A. I. Krylov

 Contributors to earlier versions of Q-Chem not listed above: 
 R. D. Adamson,  B. Austin,  R. Baer,  J. Baker,  G. J. O. Beran,  
 K. Brandhorst,  S. T. Brown,  E. F. C. Byrd,  Arup K. Chakraborty,  
 G. K. L. Chan,  Chun-Min Chang,  Yunqing Chen,  C.-L. Cheng,  
 Siu Hung Chien,  D. M. Chipman,  D. L. Crittenden,  H. Dachsel,  
 R. J. Doerksen,  A. D. Dutoi,  R. G. Edgar,  J. Fosso-Tande,  
 L. Fusti-Molnar,  D. Ghosh,  A. Ghysels,  A. Golubeva-Zadorozhnaya,  
 J. Gonthier,  M. S. Gordon,  S. R. Gwaltney,  G. Hawkins,  J. E. Herr,  
 A. Heyden,  S. Hirata,  E. G. Hohenstein,  G. Kedziora,  F. J. Keil,  
 C. Kelley,  Jihan Kim,  R. A. King,  R. Z. Khaliullin,  P. P. Korambath,  
 W. Kurlancheek,  A. Laurent,  A. M. Lee,  M. S. Lee,  S. V. Levchenko,  
 Ching Yeh Lin,  D. Liotard,  E. Livshits,  R. C. Lochan,  I. Lotan,  
 L. A. Martinez-Martinez,  P. E. Maslen,  N. Nair,  D. P. O'Neill,  
 D. Neuhauser,  E. Neuscamman,  C. M. Oana,  R. Olivares-Amaya,  R. Olson,  
 T. M. Perrine,  B. Peters,  P. A. Pieniazek,  A. Prociuk,  Y. M. Rhee,  
 J. Ritchie,  M. A. Rohrdanz,  E. Rosta,  N. J. Russ,  H. F. Schaefer III,  
 M. W. Schmidt,  N. E. Schultz,  S. Sharma,  N. Shenvi,  C. D. Sherrill,  
 A. C. Simmonett,  A. Sodt,  T. Stein,  D. Stuck,  K. S. Thanthiriwatte,  
 V. Vanovschi,  L. Vogt,  Tao Wang,  A. Warshel,  M. A. Watson,  
 C. F. Williams,  Q. Wu,  X. Xu,  Jun Yang,  W. Zhang,  Yan Zhao

   Please cite Q-Chem as follows:
  "Software for the frontiers of quantum chemistry:
   An overview of developments in the Q-Chem 5 package"
   J. Chem. Phys. 155, 084801 (2021)
   https://doi.org/10.1063/5.0055522 (open access)

 Q-Chem 6.0.2 for Intel X86 EM64T Linux

 Parts of Q-Chem use Armadillo 9.900.5 (Nocturnal Misbehaviour).
 http://arma.sourceforge.net/

 Q-Chem begins on Fri May 31 08:56:20 2024  

 Host: 
0

     Scratch files written to /data/scratch/FeH2O6_freq20240531085620//
 Dec722 |scratch|qcdevops|jenkins|workspace|build_RNUM 8907   
 Processing $rem in /opt/qchem/6.0.1/config/preferences:
 Processing $rem in /home/sgardner/.qchemrc:
 Symmetry turned off for PCM/SM12/SMD calculation

 Checking the input file for inconsistencies... 	...done.

--------------------------------------------------------------
User input:
--------------------------------------------------------------
$molecule
3 6
O   -0.3466131   -2.1925915   -0.8644273
O    1.4677603    1.2639657    0.1008649
Fe    0.5606045   -0.4640498   -0.3817863
O   -1.2268977    0.4548744   -0.3686848
O    2.3476791   -1.3854784   -0.3973068
O    0.7635727   -0.0342159   -2.3344523
O    0.3529396   -0.8971048    1.5695018
H   -1.3044005   -2.3148983   -1.0115494
H    1.0325916    2.1259242    0.2483026
H   -1.6429598    0.9218496   -1.1188343
H    2.9344269   -1.4826716   -1.1720337
H    0.4574906   -0.5933085   -3.0746645
H    0.6661709   -0.3472927    2.3135600
H   -0.0643834   -1.6966371    1.9441240
H    2.7677277   -1.8492579    0.3523799
H    2.4229520    1.3820992    0.2669800
H    1.2208060    0.7405899   -2.7144236
H    0.0881918   -3.0549430   -1.0095007
H   -1.8176283    0.5479667    0.4037113
$end

$rem
BASIS  =  gen
DFT_D  =  D3_BJ
GUI  =  2
JOB_TYPE  =  Frequency
METHOD  =  B3LYP
SCF_CONVERGENCE  =  8
SOLVENT_METHOD  =  PCM
MEM_TOTAL  =  50000
$end

$pcm
THEORY  CPCM
$end

$solvent
DIELECTRIC  78.39
$end

$van_der_waals
26   2.44
$end

!----------------------------------------------------------------------
! Basis Set Exchange
! Basis set: cc-pVDZ
!----------------------------------------------------------------------

$rem
BASIS GEN
PURECART 11
$end

$basis
H     0
S   4   1.00
1.301000D+01           1.968500D-02
1.962000D+00           1.379770D-01
4.446000D-01           4.781480D-01
1.220000D-01           5.012400D-01
S   1   1.00
1.220000D-01           1.000000D+00
P   1   1.00
7.270000D-01           1.0000000
****
C     0
S   9   1.00
6.665000D+03           6.920000D-04
1.000000D+03           5.329000D-03
2.280000D+02           2.707700D-02
6.471000D+01           1.017180D-01
2.106000D+01           2.747400D-01
7.495000D+00           4.485640D-01
2.797000D+00           2.850740D-01
5.215000D-01           1.520400D-02
1.596000D-01          -3.191000D-03
S   9   1.00
6.665000D+03          -1.460000D-04
1.000000D+03          -1.154000D-03
2.280000D+02          -5.725000D-03
6.471000D+01          -2.331200D-02
2.106000D+01          -6.395500D-02
7.495000D+00          -1.499810D-01
2.797000D+00          -1.272620D-01
5.215000D-01           5.445290D-01
1.596000D-01           5.804960D-01
S   1   1.00
1.596000D-01           1.000000D+00
P   4   1.00
9.439000D+00           3.810900D-02
2.002000D+00           2.094800D-01
5.456000D-01           5.085570D-01
1.517000D-01           4.688420D-01
P   1   1.00
1.517000D-01           1.000000D+00
D   1   1.00
5.500000D-01           1.0000000
****
N     0
S   9   1.00
9.046000D+03           7.000000D-04
1.357000D+03           5.389000D-03
3.093000D+02           2.740600D-02
8.773000D+01           1.032070D-01
2.856000D+01           2.787230D-01
1.021000D+01           4.485400D-01
3.838000D+00           2.782380D-01
7.466000D-01           1.544000D-02
2.248000D-01          -2.864000D-03
S   9   1.00
9.046000D+03          -1.530000D-04
1.357000D+03          -1.208000D-03
3.093000D+02          -5.992000D-03
8.773000D+01          -2.454400D-02
2.856000D+01          -6.745900D-02
1.021000D+01          -1.580780D-01
3.838000D+00          -1.218310D-01
7.466000D-01           5.490030D-01
2.248000D-01           5.788150D-01
S   1   1.00
2.248000D-01           1.000000D+00
P   4   1.00
1.355000D+01           3.991900D-02
2.917000D+00           2.171690D-01
7.973000D-01           5.103190D-01
2.185000D-01           4.622140D-01
P   1   1.00
2.185000D-01           1.000000D+00
D   1   1.00
8.170000D-01           1.0000000
****
O     0
S   9   1.00
1.172000D+04           7.100000D-04
1.759000D+03           5.470000D-03
4.008000D+02           2.783700D-02
1.137000D+02           1.048000D-01
3.703000D+01           2.830620D-01
1.327000D+01           4.487190D-01
5.025000D+00           2.709520D-01
1.013000D+00           1.545800D-02
3.023000D-01          -2.585000D-03
S   9   1.00
1.172000D+04          -1.600000D-04
1.759000D+03          -1.263000D-03
4.008000D+02          -6.267000D-03
1.137000D+02          -2.571600D-02
3.703000D+01          -7.092400D-02
1.327000D+01          -1.654110D-01
5.025000D+00          -1.169550D-01
1.013000D+00           5.573680D-01
3.023000D-01           5.727590D-01
S   1   1.00
3.023000D-01           1.000000D+00
P   4   1.00
1.770000D+01           4.301800D-02
3.854000D+00           2.289130D-01
1.046000D+00           5.087280D-01
2.753000D-01           4.605310D-01
P   1   1.00
2.753000D-01           1.000000D+00
D   1   1.00
1.185000D+00           1.0000000
****
Fe     0
S   20   1.00
4.316265D+06           8.048803D-06
6.463424D+05           6.258306D-05
1.470897D+05           3.290239D-04
4.166152D+04           1.387355D-03
1.359077D+04           5.023256D-03
4.905750D+03           1.610140D-02
1.912746D+03           4.590034D-02
7.926043D+02           1.136154D-01
3.448065D+02           2.283869D-01
1.558999D+02           3.221159D-01
7.223091D+01           2.383661D-01
3.272506D+01           7.404667D-02
1.566762D+01           9.214197D-02
7.503483D+00           9.339790D-02
3.312223D+00           1.573965D-02
1.558471D+00          -4.186682D-04
6.839140D-01           5.376318D-05
1.467570D-01          -3.816654D-05
7.058300D-02           4.319603D-05
3.144900D-02          -3.401019D-06
S   20   1.00
4.316265D+06          -4.155954D-06
6.463424D+05          -3.231401D-05
1.470897D+05          -1.699525D-04
4.166152D+04          -7.171369D-04
1.359077D+04          -2.603625D-03
4.905750D+03          -8.399109D-03
1.912746D+03          -2.434109D-02
7.926043D+02          -6.251948D-02
3.448065D+02          -1.365929D-01
1.558999D+02          -2.312707D-01
7.223091D+01          -2.383734D-01
3.272506D+01           3.123837D-02
1.566762D+01           5.086818D-01
7.503483D+00           4.987695D-01
3.312223D+00           9.033552D-02
1.558471D+00          -6.005337D-03
6.839140D-01           2.312454D-04
1.467570D-01          -5.643680D-04
7.058300D-02           4.992260D-04
3.144900D-02          -1.015293D-04
S   20   1.00
4.316265D+06           9.532178D-07
6.463424D+05           7.414605D-06
1.470897D+05           3.898393D-05
4.166152D+04           1.647152D-04
1.359077D+04           5.985980D-04
4.905750D+03           1.942390D-03
1.912746D+03           5.687237D-03
7.926043D+02           1.501329D-02
3.448065D+02           3.452455D-02
1.558999D+02           6.495820D-02
7.223091D+01           7.716194D-02
3.272506D+01          -1.873411D-02
1.566762D+01          -3.009185D-01
7.503483D+00          -4.554661D-01
3.312223D+00           1.286463D-01
1.558471D+00           7.183316D-01
6.839140D-01           4.051743D-01
1.467570D-01           2.168227D-02
7.058300D-02          -8.343566D-03
3.144900D-02           3.658979D-03
S   20   1.00
4.316265D+06          -2.063008D-07
6.463424D+05          -1.604169D-06
1.470897D+05          -8.438437D-06
4.166152D+04          -3.563151D-05
1.359077D+04          -1.295998D-04
4.905750D+03          -4.201534D-04
1.912746D+03          -1.231954D-03
7.926043D+02          -3.248922D-03
3.448065D+02          -7.493717D-03
1.558999D+02          -1.410102D-02
7.223091D+01          -1.691600D-02
3.272506D+01           4.218996D-03
1.566762D+01           6.833810D-02
7.503483D+00           1.098201D-01
3.312223D+00          -4.009005D-02
1.558471D+00          -2.174739D-01
6.839140D-01          -2.465135D-01
1.467570D-01           2.731435D-01
7.058300D-02           5.748321D-01
3.144900D-02           3.012713D-01
S   20   1.00
4.316265D+06          -4.009367D-07
6.463424D+05          -3.189255D-06
1.470897D+05          -1.623079D-05
4.166152D+04          -7.157920D-05
1.359077D+04          -2.463958D-04
4.905750D+03          -8.544907D-04
1.912746D+03          -2.307593D-03
7.926043D+02          -6.728292D-03
3.448065D+02          -1.366165D-02
1.558999D+02          -3.062240D-02
7.223091D+01          -2.631137D-02
3.272506D+01          -9.760183D-03
1.566762D+01           1.801906D-01
7.503483D+00           1.529634D-01
3.312223D+00           5.505413D-02
1.558471D+00          -9.551364D-01
6.839140D-01           2.586813D-01
1.467570D-01           1.834049D+00
7.058300D-02          -9.333240D-01
3.144900D-02          -6.981605D-01
S   1   1.00
3.144900D-02           1.000000D+00
P   16   1.00
1.774569D+04           4.100000D-05
4.200721D+03           3.690000D-04
1.364429D+03           2.129000D-03
5.220806D+02           9.369000D-03
2.214595D+02           3.309700D-02
1.009096D+02           9.443100D-02
4.840115D+01           2.080770D-01
2.398536D+01           3.323330D-01
1.218250D+01           3.329870D-01
6.242298D+00           1.568430D-01
3.110944D+00           2.154900D-02
1.509958D+00          -2.095000D-03
7.108450D-01          -1.739000D-03
2.731900D-01          -3.000000D-04
1.042330D-01           2.900000D-05
3.829100D-02          -1.100000D-05
P   16   1.00
1.774569D+04          -1.500000D-05
4.200721D+03          -1.300000D-04
1.364429D+03          -7.510000D-04
5.220806D+02          -3.329000D-03
2.214595D+02          -1.191200D-02
1.009096D+02          -3.493300D-02
4.840115D+01          -7.998900D-02
2.398536D+01          -1.346360D-01
1.218250D+01          -1.385980D-01
6.242298D+00           3.027800D-02
3.110944D+00           3.332160D-01
1.509958D+00           4.561530D-01
7.108450D-01           2.850510D-01
2.731900D-01           4.614400D-02
1.042330D-01          -3.249000D-03
3.829100D-02           1.357000D-03
P   16   1.00
1.774569D+04           5.000000D-06
4.200721D+03           4.200000D-05
1.364429D+03           2.410000D-04
5.220806D+02           1.085000D-03
2.214595D+02           3.831000D-03
1.009096D+02           1.142300D-02
4.840115D+01           2.579200D-02
2.398536D+01           4.481800D-02
1.218250D+01           4.459800D-02
6.242298D+00          -1.117700D-02
3.110944D+00          -1.381340D-01
1.509958D+00          -1.882850D-01
7.108450D-01          -1.073990D-01
2.731900D-01           4.448630D-01
1.042330D-01           6.402390D-01
3.829100D-02           6.445700D-02
P   16   1.00
1.774569D+04           3.000000D-06
4.200721D+03           2.900000D-05
1.364429D+03           1.650000D-04
5.220806D+02           7.340000D-04
2.214595D+02           2.626000D-03
1.009096D+02           7.725000D-03
4.840115D+01           1.773300D-02
2.398536D+01           3.005500D-02
1.218250D+01           3.109400D-02
6.242298D+00          -1.004800D-02
3.110944D+00          -8.830600D-02
1.509958D+00          -1.298240D-01
7.108450D-01          -7.693700D-02
2.731900D-01           2.126610D-01
1.042330D-01           5.730610D-01
3.829100D-02           3.696510D-01
P   1   1.00
3.829100D-02           1.000000D+00
D   8   1.00
1.133440D+02           3.530000D-03
3.364140D+01           2.578400D-02
1.233100D+01           9.911900D-02
4.994780D+00           2.390730D-01
2.072800D+00           3.571990D-01
8.307530D-01           3.621880D-01
3.091780D-01           2.364610D-01
1.001300D-01           6.011800D-02
D   8   1.00
1.133440D+02          -3.890000D-03
3.364140D+01          -2.844200D-02
1.233100D+01          -1.124290D-01
4.994780D+00          -2.742570D-01
2.072800D+00          -3.155460D-01
8.307530D-01           5.710900D-02
3.091780D-01           5.636040D-01
1.001300D-01           3.846370D-01
D   1   1.00
1.001300D-01           1.000000D+00
F   2   1.00
3.224300D+00           4.222490D-01
7.758000D-01           7.714680D-01
****
$end


--------------------------------------------------------------
 Adding empirical dispersion correction 
 ----------------------------------------------------------------
 Doing -D3(BJ) with
 s6  =   1.00000
 s8  =   1.98890
 a1  =   0.39810
 a2  =   4.42110
 -D3 energy without 3body term =     -0.0256208948 hartrees
 ----------------------------------------------------------------
             Standard Nuclear Orientation (Angstroms)
    I     Atom           X                Y                Z
 ----------------------------------------------------------------
    1      O      -0.3466131000    -2.1925915000    -0.8644273000
    2      O       1.4677603000     1.2639657000     0.1008649000
    3      Fe      0.5606045000    -0.4640498000    -0.3817863000
    4      O      -1.2268977000     0.4548744000    -0.3686848000
    5      O       2.3476791000    -1.3854784000    -0.3973068000
    6      O       0.7635727000    -0.0342159000    -2.3344523000
    7      O       0.3529396000    -0.8971048000     1.5695018000
    8      H      -1.3044005000    -2.3148983000    -1.0115494000
    9      H       1.0325916000     2.1259242000     0.2483026000
   10      H      -1.6429598000     0.9218496000    -1.1188343000
   11      H       2.9344269000    -1.4826716000    -1.1720337000
   12      H       0.4574906000    -0.5933085000    -3.0746645000
   13      H       0.6661709000    -0.3472927000     2.3135600000
   14      H      -0.0643834000    -1.6966371000     1.9441240000
   15      H       2.7677277000    -1.8492579000     0.3523799000
   16      H       2.4229520000     1.3820992000     0.2669800000
   17      H       1.2208060000     0.7405899000    -2.7144236000
   18      H       0.0881918000    -3.0549430000    -1.0095007000
   19      H      -1.8176283000     0.5479667000     0.4037113000
 ----------------------------------------------------------------
 Nuclear Repulsion Energy =         692.02476130 hartrees
 There are       44 alpha and       39 beta electrons
 Requested basis set is non-standard
 There are 87 shells and 187 basis functions

 Total QAlloc Memory Limit  50000 MB
 Mega-Array Size       188 MB
 MEM_STATIC part       192 MB

 Using C-PCM dielectric factor f(eps) = (eps-1)/eps = 0.987243
No default van der Waals radius is available for Z = 26
	Found R = 2.4400 A in the $van_der_waals section
 Discretize the solute cavity surface with Lebedev spheres
	Using 110 Lebedev grid points for each H atom
	Using 194 Lebedev grid points for other atoms
	Atomic van der Waals radii (Bondi set) will be scaled by 1.20
 Using smooth SwiG surface discretization
 Remove points where switching function is < 1.0e-08
 Keep 1287 surface tesserae and discard 1391 interior tesserae
 Molecular Surface Area = 166.233 Angst**2

 ================ Generating on-the-fly SAD Guess ================
 Attempting to make child job directory: /data/scratch/FeH2O6_freq20240531085620//Frg1/
 Attempting to make child job directory: /data/scratch/FeH2O6_freq20240531085620//Frg2/
 Attempting to make child job directory: /data/scratch/FeH2O6_freq20240531085620//Frg3/
 Creating input file /data/scratch/FeH2O6_freq20240531085620/Frg1.input
 using default PutDataFrgm: nothing
 calling putenv with: QCSCRATCH=/data/scratch/FeH2O6_freq20240531085620/ 
 Spawning Job For Fragment 0
 Done Job For Fragment 0
 calling putenv with: QCSCRATCH=/data/scratch 
 calling putenv with: QCTHREADS=20 
 Creating input file /data/scratch/FeH2O6_freq20240531085620/Frg2.input
 using default PutDataFrgm: nothing
 calling putenv with: QCSCRATCH=/data/scratch/FeH2O6_freq20240531085620/ 
 Spawning Job For Fragment 1
 Done Job For Fragment 1
 calling putenv with: QCSCRATCH=/data/scratch 
 calling putenv with: QCTHREADS=20 
 Creating input file /data/scratch/FeH2O6_freq20240531085620/Frg3.input
 using default PutDataFrgm: nothing
 calling putenv with: QCSCRATCH=/data/scratch/FeH2O6_freq20240531085620/ 
 Spawning Job For Fragment 2
 Done Job For Fragment 2
 calling putenv with: QCSCRATCH=/data/scratch 
 calling putenv with: QCTHREADS=20 
 Time for running child jobs:  CPU 2.23 s  wall 71.19 s
 A cutoff of  1.0D-12 yielded   3801 shell pairs
 There are     17413 function pairs (     19735 Cartesian)
 Smallest overlap matrix eigenvalue = 8.23E-04
 ============= Method Specific SAD Guess Constructed =============
 Guess from on-the-fly superposition of atomic densities
 Warning: Energy on first SCF cycle will be non-variational

 -----------------------------------------------------------------------
  General SCF calculation program by
  Eric Jon Sundstrom, Paul Horn, Yuezhi Mao, Dmitri Zuev, Alec White,
  David Stuck, Shaama M.S., Shane Yost, Joonho Lee, David Small,
  Daniel Levine, Susi Lehtola, Hugh Burton, Evgeny Epifanovsky,
  Bang C. Huynh
 -----------------------------------------------------------------------
 Exchange:     0.2000 Hartree-Fock + 0.0800 Slater + 0.7200 B88
 Correlation:  0.1900 VWN1RPA + 0.8100 LYP
 Using SG-1 standard quadrature grid
 Dispersion:   Grimme D3
 using 20 threads for integral computing
 -------------------------------------------------------
 OpenMP Integral computing Module                
 Release: version 1.0, May 2013, Q-Chem Inc. Pittsburgh 
 -------------------------------------------------------
 C-PCM solvent model [f = (eps-1)/eps], solve by matrix inversion
 A unrestricted SCF calculation will be
 performed using DIIS
 SCF converges when DIIS error is below 1.0e-08
 ---------------------------------------
  Cycle       Energy         DIIS error
 ---------------------------------------
    1   -1724.6236851878      3.16e-02  
    2   -1721.7436457266      4.83e-03  
    3   -1716.7282734768      2.24e-02  
    4   -1721.9293637467      3.02e-03  
    5   -1722.0375669604      4.99e-04  
    6   -1722.0409314733      6.91e-05  
    7   -1722.0410076023      5.55e-05  
    8   -1722.0410496772      1.11e-05  
    9   -1722.0410509206      5.73e-06  
   10   -1722.0410513471      7.18e-07  
   11   -1722.0410513566      1.92e-07  
   12   -1722.0410513573      1.44e-07  
   13   -1722.0410513576      2.87e-08  
   14   -1722.0410513577      3.41e-09  Convergence criterion met
 ---------------------------------------
 SCF time:   CPU 1830.35s  wall 106.00s 
<S^2> =          8.754831443

************** Final PCM Free Energy Summary **************
 G_electrostatic  =      -0.67615197 hartree =    -424.29176467 kcal/mol
 G_cavitation     =       0.00000000 hartree =       0.00000000 kcal/mol
 G_dispersion     =       0.00000000 hartree =       0.00000000 kcal/mol
 G_repulsion      =       0.00000000 hartree =       0.00000000 kcal/mol
 --------------------------------------------------
 Non-electrostatic Free Energy =       0.00000000 hartree =       0.00000000 kcal/mol
 Total                         =      -0.67615197 hartree =    -424.29176467 kcal/mol
 --------------------------------------------------
 SCF Energy (H0 + V/2)                       =   -1722.04105136 
 Solute Internal Energy (H0)                 =   -1721.36489939 
 Total Free Energy (H0 + V/2 + non-elec)     =   -1722.04105136 hartree
                                             = -1080597.06917773 kcal/mol
***********************************************************

 SCF   energy in the final basis set =    -1722.0410513577
 Total energy in the final basis set =    -1722.0410513577
 
 --------------------------------------------------------------
 
                    Orbital Energies (a.u.)
 --------------------------------------------------------------
 
 Alpha MOs
 -- Occupied --
******** -30.3096 -26.1607 -26.1607 -26.1606 -19.2551 -19.2550 -19.2550
-19.2550 -19.2549 -19.2547  -3.7907  -2.5635  -2.5634  -2.5632  -1.1240
 -1.1126  -1.1125  -1.1122  -1.1105  -1.1103  -0.6351  -0.6347  -0.6342
 -0.6341  -0.6336  -0.6253  -0.6251  -0.6246  -0.6022  -0.5648  -0.5643
 -0.5642  -0.5409  -0.5405  -0.5401  -0.4264  -0.4264  -0.4236  -0.4227
 -0.4225  -0.4163  -0.4153  -0.4152
 -- Virtual --
 -0.0489  -0.0017  -0.0016  -0.0013   0.0553   0.0554   0.0931   0.0933
  0.0941   0.0987   0.0991   0.1002   0.1226   0.1903   0.1909   0.1916
  0.2232   0.2239   0.2248   0.2320   0.2350   0.2361   0.2372   0.3434
  0.3438   0.5561   0.5562   0.5568   0.5606   0.5970   0.5980   0.5993
  0.6214   0.6215   0.6315   0.6316   0.6322   0.6513   0.6641   0.6650
  0.6653   0.9064   0.9070   0.9077   0.9471   0.9472   0.9484   0.9991
  1.0004   1.0015   1.0259   1.0264   1.0411   1.0469   1.0482   1.0754
  1.1194   1.1213   1.1231   1.1549   1.1557   1.1559   1.1603   1.1609
  1.2330   1.2365   1.2369   1.3064   1.3089   1.3111   1.4103   1.4122
  1.4131   1.5870   1.5883   1.5918   1.5936   1.5955   1.5956   1.7299
  1.7303   1.7333   1.7341   1.7545   1.7557   1.7561   1.8658   1.8665
  1.9929   1.9959   2.0032   2.0301   2.0434   2.0444   2.0447   2.0590
  2.0593   2.0599   2.0874   2.0908   2.0912   2.0924   2.0951   2.2822
  2.3859   2.3870   2.7321   2.7488   2.7499   2.7529   2.7687   2.7711
  2.7714   2.8159   2.8184   2.8197   2.8300   2.8303   2.8389   2.8391
  2.8400   2.8525   2.8962   2.8976   2.8999   2.9588   3.0965   3.0968
  3.3260   3.3283   3.3294   3.4006   3.4012   3.4415   3.4421   3.4437
  3.4669   3.6873   3.6889   3.6942   3.6975   3.7028   3.7043
 
 Beta MOs
 -- Occupied --
******** -30.2122 -26.0796 -26.0796 -26.0795 -19.2515 -19.2514 -19.2514
-19.2514 -19.2513 -19.2511  -3.5649  -2.3256  -2.3255  -2.3254  -1.1165
 -1.1050  -1.1049  -1.1046  -1.1025  -1.1023  -0.6234  -0.6229  -0.6223
 -0.6217  -0.6215  -0.6211  -0.5889  -0.5466  -0.5465  -0.5280  -0.5276
 -0.5272  -0.4234  -0.4216  -0.4213  -0.4106  -0.4094  -0.4092
 -- Virtual --
 -0.2317  -0.2316  -0.2310  -0.1795  -0.1794  -0.0456   0.0001   0.0002
  0.0005   0.0596   0.0597   0.0961   0.0963   0.0970   0.1015   0.1018
  0.1029   0.1457   0.1918   0.1924   0.1931   0.2343   0.2350   0.2358
  0.2415   0.2487   0.2495   0.2507   0.3443   0.3446   0.5710   0.5715
  0.5717   0.5736   0.6060   0.6071   0.6083   0.6234   0.6235   0.6345
  0.6348   0.6353   0.6771   0.6855   0.6860   0.6867   0.9111   0.9117
  0.9125   0.9609   0.9611   0.9628   1.0040   1.0053   1.0064   1.0330
  1.0334   1.0528   1.0590   1.0606   1.0790   1.1224   1.1242   1.1260
  1.1567   1.1575   1.1577   1.2156   1.2163   1.2739   1.2798   1.2812
  1.3187   1.3208   1.3261   1.4139   1.4158   1.4167   1.5918   1.5929
  1.5960   1.5980   1.5997   1.6002   1.7468   1.7482   1.7510   1.7519
  1.7851   1.7868   1.7876   1.8733   1.8740   1.9997   2.0026   2.0098
  2.0346   2.0472   2.0482   2.0485   2.0658   2.0661   2.0665   2.0944
  2.0974   2.0980   2.0999   2.1027   2.2897   2.4353   2.4363   2.7690
  2.7703   2.7736   2.7782   2.7799   2.7802   2.8116   2.8360   2.8363
  2.8449   2.8453   2.8461   2.8505   2.8525   2.8533   2.9251   2.9644
  3.0185   3.0193   3.0208   3.1149   3.1153   3.3951   3.3968   3.3991
  3.4069   3.4075   3.4722   3.4788   3.4793   3.4802   3.6916   3.6932
  3.6986   3.7036   3.7088   3.7104
 --------------------------------------------------------------
 
          Ground-State Mulliken Net Atomic Charges

     Atom                 Charge (a.u.)    Spin (a.u.)
  --------------------------------------------------------
      1 O                    -0.186505       0.098341
      2 O                    -0.186532       0.098529
      3 Fe                    0.888102       4.342447
      4 O                    -0.186911       0.098492
      5 O                    -0.186423       0.098318
      6 O                    -0.187226       0.098485
      7 O                    -0.186944       0.098600
      8 H                     0.269304       0.005551
      9 H                     0.269258       0.005588
     10 H                     0.269387       0.005598
     11 H                     0.269097       0.005529
     12 H                     0.269778       0.005507
     13 H                     0.269626       0.005537
     14 H                     0.269374       0.005597
     15 H                     0.269170       0.005615
     16 H                     0.269510       0.005538
     17 H                     0.269417       0.005612
     18 H                     0.269101       0.005582
     19 H                     0.269416       0.005535
  --------------------------------------------------------
  Sum of atomic charges =     3.000000
  Sum of spin   charges =     5.000000

 -----------------------------------------------------------------
                    Cartesian Multipole Moments
 -----------------------------------------------------------------
    Charge (ESU x 10^10)
                14.4096
    Dipole Moment (Debye)
         X       8.1651      Y      -6.7755      Z      -5.4675
       Tot      11.9360
    Quadrupole Moments (Debye-Ang)
        XX      -2.3529     XY      -3.9173     YY      -3.7869
        XZ      -3.0446     YZ       2.8765     ZZ      -4.7237
    Octopole Moments (Debye-Ang^2)
       XXX      -9.0730    XXY       1.0062    XYY      -2.0415
       YYY       7.9268    XXZ       0.8585    XYZ       1.6436
       YYZ       1.6372    XZZ      -1.9115    YZZ       1.6671
       ZZZ       7.0146
    Hexadecapole Moments (Debye-Ang^3)
      XXXX    -128.1750   XXXY     -46.2144   XXYY     -19.9670
      XYYY      43.1589   YYYY    -132.9826   XXXZ       5.4952
      XXYZ       8.6428   XYYZ      16.8937   YYYZ      26.6654
      XXZZ     -78.8945   XYZZ      10.7144   YYZZ     -67.0642
      XZZZ     -15.4673   YZZZ     -40.3754   ZZZZ     -72.2980
 -----------------------------------------------------------------
 Calculating MO derivatives via CPSCF
 Computing fast CPCM-SWIG hessian.
   1         3          57      0.180032    0.020209
   2         3          57      0.021880    0.004336
   3         3          57      0.002750    0.000570
   4         5          55      0.000255    0.000051
   5        57           3      0.000016    0.000005
   6        60           0      0.000000    0.000000    Roots Converged
 Calculating analytic Hessian of the SCF energy
 Polarizability Matrix (a.u.)
            1           2           3
    1 -71.1222214  -0.0884264  -0.1120259
    2  -0.0884264 -70.9299490  -0.0674966
    3  -0.1120259  -0.0674966 -71.0628317
 
 Direct stationary perturbation theory relativistic correction:
 
 rels  =       4.976513789390
 relv  =     -17.577567450835
 rel2e =       3.518759149622
 E_rel =      -9.082294511823
 
 Computing fast CPCM-SWIG hessian
 Gradient time:  CPU 13512.30 s  wall 723.40 s
 **********************************************************************
 **                                                                  **
 **                       VIBRATIONAL ANALYSIS                       **
 **                       --------------------                       **
 **                                                                  **
 **        VIBRATIONAL FREQUENCIES (CM**-1) AND NORMAL MODES         **
 **     FORCE CONSTANTS (mDYN/ANGSTROM) AND REDUCED MASSES (AMU)     **
 **                  INFRARED INTENSITIES (KM/MOL)                   **
 **                                                                  **
 **********************************************************************
 

 Mode:                 1                      2                      3
 Frequency:        94.15                 112.06                 113.00
 Force Cnst:      0.0162                 0.0216                 0.0337
 Red. Mass:       3.1024                 2.9242                 4.4772
 IR Active:          YES                    YES                    YES
 IR Intens:       14.367                 25.572                  4.705
 Raman Active:       YES                    YES                    YES
               X      Y      Z        X      Y      Z        X      Y      Z
 O          0.005  0.036 -0.140    0.128 -0.085  0.031   -0.104  0.040  0.063
 O          0.006  0.035 -0.140    0.131 -0.084  0.024   -0.105  0.040  0.067
 Fe         0.008  0.001 -0.026   -0.002 -0.014 -0.009   -0.006 -0.011  0.015
 O         -0.044 -0.100  0.172   -0.019 -0.053 -0.051   -0.081 -0.139 -0.142
 O         -0.042 -0.098  0.173   -0.017 -0.049 -0.043   -0.082 -0.141 -0.136
 O          0.037  0.070  0.008   -0.105  0.159  0.022    0.192  0.105  0.052
 O          0.035  0.070  0.007   -0.089  0.148  0.020    0.203  0.103  0.053
 H          0.009  0.071 -0.196    0.133 -0.194  0.085   -0.116  0.113  0.078
 H         -0.001  0.046 -0.223    0.202 -0.074  0.176   -0.167  0.009  0.061
 H         -0.237 -0.159  0.243   -0.017 -0.088 -0.074   -0.011 -0.145 -0.185
 H          0.002 -0.316  0.234   -0.046 -0.089 -0.060   -0.140 -0.114 -0.183
 H          0.011  0.135 -0.031   -0.199  0.287 -0.035    0.235  0.201 -0.038
 H          0.016  0.131 -0.030   -0.229  0.296 -0.031    0.229  0.213 -0.039
 H          0.011  0.111  0.066   -0.256  0.274  0.103    0.198  0.168  0.186
 H         -0.247 -0.178  0.239   -0.035 -0.100 -0.063   -0.019 -0.147 -0.175
 H          0.013  0.072 -0.205    0.129 -0.207  0.123   -0.118  0.109  0.093
 H          0.001  0.120  0.066   -0.195  0.250  0.099    0.202  0.162  0.180
 H         -0.004  0.045 -0.223    0.200 -0.073  0.178   -0.167  0.007  0.070
 H          0.007 -0.307  0.236   -0.050 -0.076 -0.072   -0.140 -0.101 -0.191
 TransDip  -0.098 -0.062 -0.034   -0.124  0.023  0.101   -0.014  0.068  0.001

 Mode:                 4                      5                      6
 Frequency:       142.91                 155.65                 157.96
 Force Cnst:      0.0380                 0.0565                 0.0465
 Red. Mass:       3.1620                 3.9565                 3.1641
 IR Active:          YES                    YES                    YES
 IR Intens:       55.116                 13.910                 78.418
 Raman Active:       YES                    YES                    YES
               X      Y      Z        X      Y      Z        X      Y      Z
 O         -0.030  0.024 -0.051   -0.104 -0.012  0.250    0.021  0.001  0.104
 O          0.006 -0.020  0.034    0.101  0.005 -0.182   -0.007 -0.018  0.218
 Fe        -0.004 -0.006  0.002   -0.002  0.016 -0.028    0.020  0.072 -0.090
 O         -0.009  0.003 -0.130   -0.064 -0.101 -0.031   -0.027 -0.036  0.048
 O          0.020  0.041  0.143    0.051  0.108  0.073   -0.037 -0.057  0.066
 O         -0.167  0.046 -0.006    0.069  0.112  0.011   -0.038 -0.048 -0.102
 O          0.241 -0.101  0.003   -0.030 -0.140 -0.058    0.022  0.009 -0.080
 H         -0.026  0.069 -0.116   -0.086  0.130  0.011    0.006 -0.065  0.265
 H          0.046  0.021 -0.087    0.128 -0.068  0.330    0.006 -0.009  0.210
 H          0.187  0.073 -0.196    0.014  0.078  0.037   -0.241 -0.174  0.082
 H          0.059 -0.172  0.201    0.038 -0.027  0.080   -0.028 -0.344  0.109
 H          0.002 -0.086  0.023   -0.007  0.291 -0.092    0.057 -0.209 -0.022
 H         -0.217  0.188 -0.017    0.025 -0.330  0.058    0.131 -0.073 -0.068
 H         -0.512  0.322  0.069   -0.107 -0.181 -0.230    0.185 -0.091 -0.115
 H         -0.199 -0.070  0.199   -0.191 -0.215  0.009   -0.259 -0.166  0.123
 H          0.009 -0.048  0.036    0.044 -0.220  0.305   -0.009 -0.039  0.245
 H          0.008 -0.074 -0.042    0.092  0.170  0.154    0.087 -0.178 -0.219
 H         -0.078 -0.028  0.117   -0.141  0.030 -0.114    0.026 -0.026  0.282
 H         -0.038  0.252 -0.183   -0.043 -0.101 -0.015   -0.010 -0.266  0.089
 TransDip  -0.213  0.106  0.008   -0.061 -0.074  0.071    0.032 -0.276  0.058

 Mode:                 7                      8                      9
 Frequency:       165.97                 166.77                 172.35
 Force Cnst:      0.0407                 0.0753                 0.0413
 Red. Mass:       2.5080                 4.5977                 2.3571
 IR Active:          YES                    YES                    YES
 IR Intens:      276.700                 15.222                262.571
 Raman Active:       YES                    YES                    YES
               X      Y      Z        X      Y      Z        X      Y      Z
 O         -0.060 -0.037  0.023    0.132 -0.124  0.133   -0.085  0.032  0.104
 O         -0.035 -0.062  0.066   -0.153  0.091 -0.094   -0.084  0.037  0.076
 Fe        -0.030 -0.043 -0.054   -0.012 -0.006 -0.024    0.087 -0.022 -0.008
 O          0.017  0.063  0.107    0.112  0.231  0.033    0.051 -0.050 -0.010
 O          0.044  0.117  0.001   -0.106 -0.179  0.015    0.053 -0.047 -0.015
 O          0.154 -0.048 -0.024    0.029  0.115  0.013   -0.075  0.037 -0.016
 O          0.065  0.042 -0.019    0.053 -0.128 -0.041   -0.094  0.011 -0.025
 H         -0.062 -0.040  0.034    0.163 -0.308  0.088   -0.068  0.235 -0.172
 H         -0.024 -0.066  0.114   -0.307  0.016 -0.105   -0.144  0.093 -0.429
 H         -0.095  0.062  0.169    0.023  0.042 -0.035    0.049 -0.030  0.006
 H          0.037  0.120 -0.004    0.022 -0.082  0.100    0.076 -0.035 -0.001
 H         -0.219  0.239 -0.087    0.102  0.197 -0.078   -0.254  0.130 -0.013
 H         -0.299  0.346 -0.091   -0.236 -0.047  0.020   -0.281  0.079  0.002
 H         -0.452  0.372  0.109   -0.117 -0.076 -0.118   -0.243  0.070 -0.065
 H          0.046  0.125  0.004   -0.063  0.034  0.122    0.043 -0.043 -0.006
 H         -0.028 -0.079  0.031   -0.190  0.236  0.012   -0.049  0.267 -0.289
 H         -0.202  0.197  0.048   -0.076  0.242  0.143   -0.165  0.080 -0.036
 H         -0.069 -0.048  0.054    0.292 -0.066  0.260   -0.151  0.081 -0.388
 H          0.069 -0.033  0.159    0.007  0.077 -0.028    0.080 -0.029  0.009
 TransDip  -0.468  0.253  0.023   -0.109  0.047  0.040   -0.112  0.228 -0.453

 Mode:                10                     11                     12
 Frequency:       178.51                 193.76                 201.58
 Force Cnst:      0.0440                 0.0338                 0.0283
 Red. Mass:       2.3457                 1.5275                 1.1822
 IR Active:          YES                    YES                    YES
 IR Intens:      197.206                415.735                226.562
 Raman Active:       YES                    YES                    YES
               X      Y      Z        X      Y      Z        X      Y      Z
 O         -0.058 -0.044  0.003   -0.049  0.042 -0.053   -0.001 -0.024  0.033
 O         -0.055 -0.053  0.026   -0.051  0.051 -0.065    0.009 -0.023  0.005
 Fe        -0.011 -0.070 -0.034    0.043 -0.021 -0.003   -0.013 -0.005  0.001
 O          0.069  0.075 -0.019    0.041 -0.013  0.033    0.010  0.020  0.044
 O          0.068  0.068  0.089    0.032 -0.023 -0.019    0.017  0.039 -0.043
 O         -0.063  0.110 -0.000   -0.053  0.010  0.002   -0.009  0.047  0.002
 O         -0.004  0.103  0.009   -0.041  0.023  0.008   -0.015  0.003 -0.002
 H         -0.075 -0.007  0.072   -0.085  0.054  0.176    0.021  0.004 -0.131
 H         -0.082 -0.059 -0.028   -0.198 -0.121  0.513    0.047  0.039 -0.250
 H          0.082  0.054 -0.038    0.015 -0.039  0.033   -0.149 -0.227 -0.022
 H          0.081 -0.034  0.110    0.051  0.040 -0.013   -0.006  0.036 -0.059
 H          0.131  0.089 -0.066    0.198 -0.149  0.019    0.615 -0.287 -0.004
 H          0.474 -0.044 -0.083   -0.119  0.059  0.014   -0.055  0.036 -0.009
 H          0.684 -0.208  0.108   -0.204  0.111  0.014   -0.251  0.134  0.014
 H         -0.041 -0.026  0.093    0.082  0.029 -0.013   -0.082 -0.178 -0.121
 H         -0.065 -0.031  0.057   -0.139 -0.008  0.489    0.030  0.003 -0.134
 H          0.147  0.035  0.098    0.093 -0.079 -0.005    0.405 -0.182  0.031
 H         -0.102 -0.051 -0.094   -0.161 -0.088  0.387    0.013 -0.005 -0.040
 H          0.068  0.102 -0.024    0.022 -0.078  0.026   -0.022 -0.082  0.032
 TransDip   0.380 -0.239 -0.025   -0.034 -0.178  0.627    0.199 -0.327 -0.293

 Mode:                13                     14                     15
 Frequency:       209.35                 211.21                 230.35
 Force Cnst:      0.0293                 0.0313                 0.0349
 Red. Mass:       1.1361                 1.1901                 1.1169
 IR Active:          YES                    YES                    YES
 IR Intens:       28.589                448.494                105.886
 Raman Active:       YES                    YES                    YES
               X      Y      Z        X      Y      Z        X      Y      Z
 O         -0.021  0.021 -0.024   -0.008 -0.002  0.030    0.037 -0.022  0.014
 O          0.008 -0.010  0.007    0.028 -0.015  0.009   -0.033  0.015  0.011
 Fe         0.005 -0.003 -0.004   -0.007 -0.000 -0.017   -0.002 -0.002 -0.007
 O         -0.013 -0.032 -0.002   -0.030 -0.045  0.018   -0.025 -0.038  0.016
 O          0.017  0.018  0.008   -0.035 -0.048  0.005    0.001 -0.005 -0.009
 O          0.023  0.043  0.010   -0.012  0.035 -0.012    0.004 -0.005 -0.009
 O         -0.034 -0.034 -0.011    0.014  0.005 -0.013   -0.016  0.029 -0.002
 H         -0.068 -0.052  0.344    0.004  0.023 -0.071    0.070  0.025 -0.241
 H          0.049  0.057 -0.269    0.059  0.012 -0.053   -0.063 -0.039  0.238
 H          0.028  0.056  0.030    0.136  0.291  0.135    0.311  0.557  0.200
 H         -0.033 -0.071 -0.019    0.156  0.269  0.110   -0.062 -0.141 -0.039
 H          0.034  0.053 -0.003    0.137 -0.045 -0.013    0.108 -0.073 -0.000
 H          0.080 -0.111 -0.001   -0.222  0.132 -0.009    0.254 -0.107 -0.015
 H         -0.051 -0.032 -0.027    0.112 -0.048 -0.017   -0.186  0.124  0.011
 H          0.070  0.109  0.034    0.321  0.613  0.214   -0.121 -0.203 -0.063
 H          0.073  0.095 -0.442    0.026 -0.038  0.037   -0.005  0.065 -0.180
 H         -0.030  0.083  0.030    0.290 -0.139 -0.005    0.038 -0.029 -0.018
 H         -0.116 -0.146  0.689    0.007  0.019 -0.046    0.052 -0.015  0.018
 H          0.037  0.040  0.027    0.050  0.054  0.067    0.171  0.323  0.123
 TransDip   0.049  0.024  0.162    0.453  0.497  0.092    0.253  0.211 -0.009

 Mode:                16                     17                     18
 Frequency:       231.88                 250.74                 284.32
 Force Cnst:      0.0333                 0.0391                 0.0483
 Red. Mass:       1.0521                 1.0564                 1.0144
 IR Active:          YES                    YES                    YES
 IR Intens:       23.773                130.979                  8.256
 Raman Active:       YES                    YES                    YES
               X      Y      Z        X      Y      Z        X      Y      Z
 O         -0.018  0.003  0.021    0.003  0.006 -0.005   -0.004  0.005 -0.004
 O          0.016 -0.009  0.010    0.005  0.001  0.006    0.005  0.002 -0.001
 Fe        -0.000 -0.000 -0.003    0.002  0.001 -0.008    0.001  0.001 -0.001
 O          0.013  0.016 -0.013   -0.018 -0.026  0.005   -0.008 -0.011 -0.002
 O         -0.013 -0.020  0.017   -0.021 -0.033  0.011    0.001  0.002  0.004
 O         -0.012 -0.001 -0.005    0.005  0.001 -0.005    0.002  0.002  0.001
 O          0.006  0.008 -0.002   -0.002  0.008 -0.005    0.003 -0.010 -0.004
 H          0.031  0.095 -0.371   -0.026 -0.056  0.240   -0.064 -0.054  0.432
 H         -0.020 -0.090  0.373    0.027  0.052 -0.231    0.009 -0.050  0.318
 H         -0.118 -0.223 -0.089   -0.083 -0.160 -0.042    0.043 -0.008 -0.029
 H          0.083  0.140  0.069    0.237  0.487  0.140    0.017 -0.045  0.022
 H          0.198 -0.101 -0.016    0.089 -0.044 -0.006    0.338 -0.179 -0.001
 H          0.310 -0.166 -0.002    0.283 -0.153 -0.006   -0.364  0.192  0.001
 H         -0.129  0.074 -0.010   -0.180  0.099 -0.007    0.183 -0.104 -0.006
 H          0.138  0.261  0.105   -0.036 -0.103 -0.024   -0.080 -0.068  0.007
 H          0.067  0.060 -0.332   -0.032 -0.043  0.249    0.058  0.031 -0.330
 H         -0.329  0.194  0.012   -0.199  0.122 -0.004   -0.242  0.151  0.014
 H         -0.021 -0.004  0.048    0.021  0.028 -0.085   -0.009  0.051 -0.291
 H         -0.088 -0.163 -0.068    0.213  0.417  0.128    0.055  0.199  0.020
 TransDip   0.055  0.033 -0.142    0.165  0.299  0.133   -0.020  0.056  0.070

 Mode:                19                     20                     21
 Frequency:       289.77                 306.54                 366.25
 Force Cnst:      0.0502                 0.0566                 0.0802
 Red. Mass:       1.0143                 1.0215                 1.0142
 IR Active:          YES                    YES                    YES
 IR Intens:        9.471                  0.336                  3.607
 Raman Active:       YES                    YES                    YES
               X      Y      Z        X      Y      Z        X      Y      Z
 O          0.004 -0.005 -0.009   -0.004  0.001 -0.005    0.001  0.003  0.005
 O         -0.006  0.003 -0.002    0.004  0.001  0.003    0.000  0.005  0.001
 Fe        -0.001 -0.001  0.000    0.000  0.000  0.000    0.000 -0.002  0.000
 O          0.006  0.006 -0.002    0.013  0.010 -0.008   -0.004 -0.008  0.006
 O         -0.002 -0.004  0.002   -0.014 -0.012  0.008   -0.009 -0.004  0.004
 O         -0.002  0.012  0.002   -0.007  0.000 -0.004    0.003  0.003 -0.009
 O         -0.004  0.000  0.001    0.007  0.000  0.004    0.004 -0.003 -0.003
 H         -0.042 -0.134  0.396   -0.022 -0.051  0.158    0.041  0.070 -0.303
 H         -0.068 -0.071  0.252   -0.010 -0.012  0.036   -0.026 -0.051  0.251
 H         -0.051 -0.156 -0.071    0.155  0.300  0.094   -0.134 -0.272 -0.087
 H         -0.004 -0.079  0.010    0.249  0.513  0.140    0.128  0.283  0.071
 H         -0.262  0.154  0.002   -0.072 -0.017  0.035   -0.251  0.140 -0.007
 H          0.243 -0.146  0.005    0.022  0.044 -0.034   -0.227  0.125 -0.000
 H         -0.283  0.143 -0.004    0.001  0.030  0.060    0.205 -0.110 -0.008
 H          0.057  0.165  0.073   -0.158 -0.307 -0.094   -0.112 -0.220 -0.071
 H          0.026  0.093 -0.248    0.028  0.053 -0.173    0.036  0.056 -0.241
 H          0.417 -0.236 -0.002    0.045 -0.059 -0.062    0.262 -0.154 -0.020
 H          0.069  0.077 -0.299    0.007  0.004  0.011   -0.022 -0.051  0.259
 H         -0.011  0.039 -0.019   -0.237 -0.491 -0.137    0.157  0.326  0.088
 TransDip   0.041 -0.074  0.050    0.005  0.003  0.018    0.030  0.048 -0.023

 Mode:                22                     23                     24
 Frequency:       375.25                 375.75                 459.53
 Force Cnst:      0.4862                 0.4862                 0.8475
 Red. Mass:       5.8606                 5.8445                 6.8119
 IR Active:          YES                    YES                    YES
 IR Intens:        0.148                  0.007                 95.474
 Raman Active:       YES                    YES                    YES
               X      Y      Z        X      Y      Z        X      Y      Z
 O          0.085  0.159  0.045    0.124  0.237  0.067   -0.091 -0.178 -0.051
 O         -0.083 -0.157 -0.047   -0.123 -0.235 -0.068   -0.096 -0.185 -0.054
 Fe         0.000 -0.001 -0.000   -0.001  0.000 -0.000    0.076  0.129 -0.120
 O          0.127 -0.067 -0.002   -0.256  0.139  0.003   -0.008  0.013 -0.047
 O         -0.130  0.070  0.002    0.258 -0.141 -0.003   -0.016  0.017 -0.047
 O          0.036  0.067 -0.316   -0.004 -0.006  0.023   -0.013 -0.031  0.283
 O         -0.032 -0.071  0.318    0.003  0.006 -0.022   -0.009 -0.030  0.275
 H          0.079  0.164  0.067    0.121  0.232  0.068   -0.076 -0.160 -0.136
 H         -0.081 -0.156 -0.035   -0.142 -0.248 -0.024   -0.104 -0.183 -0.061
 H          0.137 -0.061 -0.006   -0.268  0.126  0.006   -0.128  0.080  0.062
 H         -0.156  0.017 -0.013    0.300 -0.064  0.023    0.153  0.026  0.079
 H          0.043  0.083 -0.326   -0.016 -0.003  0.025   -0.075 -0.133  0.378
 H         -0.041 -0.084  0.326   -0.004  0.012 -0.023   -0.098 -0.123  0.373
 H         -0.045 -0.061  0.316    0.003  0.007 -0.020   -0.021 -0.075  0.151
 H         -0.127  0.089  0.015    0.262 -0.145 -0.013   -0.140  0.085  0.064
 H         -0.083 -0.173 -0.024   -0.118 -0.228 -0.085   -0.080 -0.174 -0.130
 H         -0.012  0.093 -0.313    0.020 -0.022  0.020   -0.011 -0.083  0.165
 H          0.086  0.164  0.008    0.140  0.244  0.052   -0.103 -0.176 -0.068
 H          0.136 -0.049  0.004   -0.290  0.079 -0.020    0.158  0.024  0.078
 TransDip  -0.012  0.003  0.003   -0.000 -0.002  0.002    0.130  0.218 -0.183

 Mode:                25                     26                     27
 Frequency:       462.63                 462.89                 463.94
 Force Cnst:      0.7530                 0.8858                 0.9085
 Red. Mass:       5.9714                 7.0166                 7.1641
 IR Active:          YES                    YES                    YES
 IR Intens:        1.010                104.780                 87.529
 Raman Active:       YES                    YES                    YES
               X      Y      Z        X      Y      Z        X      Y      Z
 O         -0.104 -0.189 -0.053   -0.128 -0.186 -0.057   -0.046 -0.171 -0.045
 O          0.106  0.206  0.058   -0.129 -0.188 -0.059   -0.028 -0.136 -0.036
 Fe        -0.013  0.004 -0.009   -0.054  0.148  0.122    0.179 -0.016  0.093
 O         -0.189  0.100 -0.000    0.179 -0.107  0.025   -0.277  0.142  0.026
 O          0.228 -0.120 -0.006    0.177 -0.106  0.026   -0.235  0.120  0.027
 O          0.024  0.045 -0.215    0.036  0.065 -0.154    0.028  0.055 -0.147
 O         -0.026 -0.055  0.243    0.034  0.068 -0.151    0.022  0.047 -0.106
 H         -0.101 -0.207 -0.066   -0.109 -0.306 -0.052   -0.070 -0.035  0.020
 H          0.111  0.212  0.046   -0.041 -0.149  0.001   -0.181 -0.212 -0.023
 H         -0.202  0.091 -0.000    0.295 -0.088 -0.033   -0.203  0.143 -0.008
 H          0.246 -0.109  0.006    0.133  0.008 -0.016   -0.319  0.145 -0.048
 H          0.019  0.054 -0.222   -0.065  0.009 -0.065    0.037 -0.036 -0.078
 H         -0.036 -0.046  0.241   -0.072 -0.002 -0.050    0.038 -0.048 -0.038
 H         -0.026 -0.053  0.250   -0.032  0.027 -0.304    0.038 -0.016 -0.214
 H          0.224 -0.109  0.004    0.296 -0.096 -0.040   -0.156  0.120 -0.010
 H          0.108  0.203  0.055   -0.111 -0.314 -0.048   -0.051 -0.001  0.026
 H          0.004  0.062 -0.208   -0.068  0.053 -0.293    0.021  0.004 -0.252
 H         -0.084 -0.182 -0.048   -0.043 -0.147 -0.002   -0.200 -0.248 -0.034
 H         -0.189  0.085  0.003    0.143  0.004 -0.011   -0.359  0.162 -0.046
 TransDip  -0.025  0.012 -0.017   -0.098  0.246  0.193    0.259 -0.047  0.144

 Mode:                28                     29                     30
 Frequency:       591.46                 594.44                 604.43
 Force Cnst:      0.2477                 0.2499                 0.2696
 Red. Mass:       1.2017                 1.2005                 1.2527
 IR Active:          YES                    YES                    YES
 IR Intens:       12.467                 11.208                273.221
 Raman Active:       YES                    YES                    YES
               X      Y      Z        X      Y      Z        X      Y      Z
 O          0.001 -0.008  0.015   -0.006 -0.001  0.007   -0.005 -0.008 -0.009
 O         -0.004  0.003 -0.017    0.005 -0.004 -0.008   -0.000 -0.012 -0.000
 Fe         0.003  0.007  0.002    0.003  0.007  0.001    0.013  0.025  0.019
 O          0.003  0.006 -0.034   -0.007 -0.015  0.069   -0.000  0.002 -0.032
 O         -0.003 -0.008  0.031    0.005  0.012 -0.066   -0.001  0.001 -0.020
 O          0.019  0.047  0.012    0.023  0.005  0.004   -0.045 -0.073 -0.025
 O         -0.033 -0.075 -0.020   -0.036 -0.030 -0.011   -0.021 -0.041 -0.016
 H         -0.000  0.023  0.003    0.006 -0.013 -0.058   -0.004 -0.015  0.009
 H          0.013  0.002  0.040   -0.023 -0.011 -0.044   -0.037 -0.028 -0.001
 H         -0.197  0.029  0.092    0.365 -0.150 -0.222   -0.154  0.079  0.103
 H         -0.180  0.042 -0.109    0.330 -0.191  0.206    0.107 -0.029  0.066
 H         -0.101 -0.196  0.244   -0.050 -0.050  0.074    0.191  0.335 -0.427
 H          0.179  0.309 -0.391    0.118  0.157 -0.212    0.108  0.184 -0.234
 H          0.069  0.126  0.519    0.059  0.057  0.280    0.048  0.072  0.305
 H          0.189 -0.021 -0.085   -0.342  0.150  0.214   -0.102  0.034  0.058
 H         -0.002 -0.026 -0.000   -0.008  0.017  0.056   -0.003  0.032 -0.000
 H         -0.060 -0.071 -0.322   -0.039 -0.010 -0.099    0.116  0.118  0.557
 H         -0.017 -0.007 -0.043    0.015  0.004  0.041    0.001 -0.005  0.006
 H          0.192 -0.046  0.118   -0.345  0.205 -0.217    0.157 -0.083  0.099
 TransDip   0.048  0.096  0.036    0.048  0.095  0.013    0.224  0.380  0.293

 Mode:                31                     32                     33
 Frequency:       606.31                 620.22                 629.31
 Force Cnst:      0.2735                 0.2677                 0.2844
 Red. Mass:       1.2628                 1.1813                 1.2189
 IR Active:          YES                    YES                    YES
 IR Intens:      252.409                  1.488                260.732
 Raman Active:       YES                    YES                    YES
               X      Y      Z        X      Y      Z        X      Y      Z
 O         -0.002 -0.003  0.002    0.070 -0.036 -0.002    0.060 -0.031 -0.000
 O         -0.003 -0.003  0.005   -0.061  0.032  0.001    0.068 -0.036  0.000
 Fe         0.009  0.017 -0.031   -0.001  0.002  0.001   -0.027  0.013 -0.002
 O         -0.007 -0.015  0.067    0.006  0.013  0.008    0.007 -0.004  0.000
 O         -0.007 -0.016  0.075   -0.005 -0.014 -0.010    0.008 -0.003  0.002
 O         -0.018 -0.027  0.004   -0.001 -0.004 -0.001    0.005 -0.000  0.001
 O         -0.008 -0.018  0.007   -0.001 -0.001 -0.000    0.004 -0.001  0.001
 H         -0.000 -0.003 -0.003   -0.019  0.503  0.120   -0.018  0.445  0.107
 H          0.004  0.003 -0.009    0.388  0.245  0.076   -0.446 -0.279 -0.091
 H          0.364 -0.126 -0.209    0.009 -0.024 -0.018    0.010  0.001 -0.002
 H         -0.383  0.209 -0.239    0.046  0.009  0.026   -0.003  0.007 -0.005
 H          0.065  0.114 -0.139   -0.029  0.042 -0.024   -0.012 -0.007  0.013
 H          0.033  0.065 -0.074    0.039 -0.021 -0.003   -0.016 -0.001  0.010
 H          0.014  0.026  0.118   -0.036  0.019  0.003   -0.007 -0.000 -0.012
 H          0.403 -0.152 -0.240   -0.019  0.030  0.025    0.015 -0.004 -0.006
 H          0.001 -0.004 -0.012    0.016 -0.443 -0.096   -0.020  0.510  0.112
 H          0.050  0.034  0.203    0.043 -0.014  0.030   -0.013  0.002 -0.017
 H          0.001  0.002 -0.013   -0.442 -0.279 -0.087   -0.391 -0.244 -0.082
 H         -0.344  0.180 -0.215   -0.034 -0.015 -0.019    0.004  0.007 -0.000
 TransDip   0.118  0.201 -0.452   -0.021  0.028  0.017   -0.465  0.226  0.007

 Mode:                34                     35                     36
 Frequency:      1588.00                1588.71                1589.55
 Force Cnst:      1.6185                 1.6193                 1.6190
 Red. Mass:       1.0893                 1.0889                 1.0876
 IR Active:          YES                    YES                    YES
 IR Intens:      239.623                253.892                 58.610
 Raman Active:       YES                    YES                    YES
               X      Y      Z        X      Y      Z        X      Y      Z
 O         -0.001 -0.001  0.001    0.000 -0.000 -0.000    0.001  0.001  0.001
 O          0.000  0.000  0.002   -0.001 -0.002 -0.001   -0.001 -0.002 -0.000
 Fe         0.000 -0.000  0.000    0.000 -0.000 -0.000    0.000 -0.000  0.000
 O         -0.017  0.009  0.001   -0.054  0.029  0.001    0.008 -0.004 -0.000
 O          0.001 -0.001  0.000   -0.029  0.016  0.001   -0.043  0.024  0.001
 O          0.004  0.006 -0.032   -0.002 -0.005  0.024    0.007  0.009 -0.047
 O          0.006  0.014 -0.061    0.001 -0.002  0.006   -0.001 -0.005  0.020
 H         -0.001  0.012 -0.001   -0.000  0.003  0.002    0.001 -0.006 -0.002
 H         -0.004 -0.002 -0.004    0.016  0.006  0.005    0.016  0.007  0.003
 H          0.146 -0.047 -0.116    0.446 -0.142 -0.355   -0.066  0.021  0.052
 H         -0.013  0.010 -0.011    0.197 -0.159  0.179    0.304 -0.244  0.275
 H         -0.127 -0.210  0.200    0.090  0.156 -0.148   -0.189 -0.312  0.300
 H         -0.219 -0.418  0.382    0.017  0.039 -0.034    0.072  0.141 -0.129
 H          0.127  0.209  0.545   -0.014 -0.018 -0.049   -0.044 -0.069 -0.185
 H         -0.011  0.003  0.009    0.233 -0.076 -0.188    0.363 -0.118 -0.291
 H          0.001 -0.004 -0.004   -0.004  0.022  0.006   -0.003  0.019  0.003
 H          0.063  0.113  0.283   -0.049 -0.082 -0.210    0.092  0.168  0.423
 H          0.010  0.005 -0.000   -0.001 -0.001  0.001   -0.007 -0.004 -0.002
 H          0.118 -0.096  0.108    0.372 -0.301  0.338   -0.056  0.045 -0.050
 TransDip   0.030 -0.147  0.473    0.448 -0.190 -0.154    0.165 -0.121  0.135

 Mode:                37                     38                     39
 Frequency:      1594.44                1601.76                1608.33
 Force Cnst:      1.6259                 1.6453                 1.6508
 Red. Mass:       1.0855                 1.0884                 1.0832
 IR Active:          YES                    YES                    YES
 IR Intens:        3.737                279.174                  0.150
 Raman Active:       YES                    YES                    YES
               X      Y      Z        X      Y      Z        X      Y      Z
 O         -0.009 -0.018 -0.005   -0.023 -0.045 -0.013    0.020  0.039  0.011
 O          0.009  0.017  0.005   -0.023 -0.044 -0.013   -0.021 -0.040 -0.012
 Fe         0.000 -0.000 -0.000    0.000  0.000  0.000    0.000  0.000 -0.000
 O          0.027 -0.015 -0.001    0.001  0.001  0.000    0.012 -0.006 -0.000
 O         -0.035  0.019  0.001    0.002  0.001  0.000   -0.013  0.007  0.000
 O         -0.004 -0.007  0.032    0.000  0.000 -0.000   -0.002 -0.003  0.014
 O          0.003  0.006 -0.026    0.000  0.000  0.001    0.001  0.003 -0.013
 H         -0.036  0.198  0.042   -0.091  0.491  0.104    0.080 -0.436 -0.092
 H         -0.169 -0.074 -0.041    0.437  0.189  0.104    0.415  0.180  0.099
 H         -0.230  0.074  0.182   -0.007 -0.001  0.003   -0.104  0.033  0.083
 H          0.247 -0.199  0.223   -0.014  0.007 -0.012    0.093 -0.075  0.085
 H          0.130  0.217 -0.207   -0.002 -0.004  0.005    0.057  0.095 -0.091
 H         -0.099 -0.187  0.171    0.002  0.003 -0.002   -0.049 -0.093  0.085
 H          0.057  0.094  0.244   -0.002 -0.003 -0.008    0.029  0.046  0.121
 H          0.294 -0.096 -0.235   -0.016  0.002  0.011    0.111 -0.036 -0.090
 H          0.034 -0.185 -0.040   -0.089  0.477  0.103   -0.084  0.453  0.098
 H         -0.066 -0.116 -0.293    0.000  0.001  0.001   -0.029 -0.051 -0.129
 H          0.180  0.079  0.040    0.449  0.196  0.098   -0.399 -0.174 -0.087
 H         -0.191  0.155 -0.173   -0.006  0.000 -0.005   -0.086  0.070 -0.079
 TransDip   0.052 -0.014 -0.030    0.227  0.464  0.139    0.012  0.004  0.001

 Mode:                40                     41                     42
 Frequency:      3662.45                3662.61                3662.71
 Force Cnst:      8.2499                 8.2501                 8.2508
 Red. Mass:       1.0439                 1.0438                 1.0439
 IR Active:          YES                    YES                    YES
 IR Intens:      410.207                342.782                897.705
 Raman Active:       YES                    YES                    YES
               X      Y      Z        X      Y      Z        X      Y      Z
 O         -0.001 -0.002 -0.001    0.001  0.003  0.001   -0.001 -0.002 -0.001
 O         -0.017 -0.037 -0.012    0.002  0.005  0.002   -0.001 -0.003 -0.001
 Fe        -0.000 -0.000 -0.000    0.000 -0.000 -0.000    0.000 -0.000  0.001
 O         -0.008  0.005  0.000    0.034 -0.019 -0.001    0.008 -0.004 -0.001
 O         -0.001  0.000  0.000   -0.001  0.000  0.000    0.001 -0.000 -0.001
 O          0.003  0.004 -0.017    0.003  0.005 -0.025   -0.004 -0.005  0.029
 O         -0.001 -0.002  0.013   -0.001 -0.003  0.012   -0.003 -0.008  0.037
 H          0.031  0.003  0.005   -0.047 -0.006 -0.007    0.028  0.002  0.004
 H         -0.303  0.555  0.091    0.041 -0.074 -0.012   -0.021  0.039  0.006
 H          0.055 -0.064  0.107   -0.227  0.265 -0.446   -0.049  0.057 -0.094
 H          0.005 -0.001 -0.008    0.006 -0.001 -0.010   -0.012  0.001  0.018
 H          0.084  0.152  0.189    0.123  0.223  0.277   -0.141 -0.256 -0.319
 H         -0.062 -0.110 -0.138   -0.057 -0.101 -0.128   -0.180 -0.318 -0.403
 H          0.078  0.150 -0.064    0.075  0.144 -0.061    0.235  0.451 -0.193
 H          0.003 -0.004  0.007    0.003 -0.004  0.008   -0.006  0.006 -0.009
 H          0.581  0.052  0.096   -0.073 -0.007 -0.012    0.042  0.004  0.007
 H         -0.123 -0.209  0.092   -0.174 -0.297  0.133    0.201  0.342 -0.153
 H         -0.016  0.030  0.005    0.026 -0.048 -0.008   -0.014  0.025  0.004
 H          0.080 -0.011 -0.110   -0.330  0.044  0.458   -0.075  0.010  0.105
 TransDip   0.379  0.473  0.232   -0.558  0.112  0.166    0.007  0.322 -0.904

 Mode:                43                     44                     45
 Frequency:      3663.42                3664.68                3690.08
 Force Cnst:      8.2539                 8.2597                 8.3937
 Red. Mass:       1.0438                 1.0439                 1.0462
 IR Active:          YES                    YES                    YES
 IR Intens:      618.057                507.757                  1.139
 Raman Active:       YES                    YES                    YES
               X      Y      Z        X      Y      Z        X      Y      Z
 O         -0.018 -0.036 -0.010    0.006  0.014  0.004   -0.009 -0.018 -0.005
 O         -0.004 -0.008 -0.003   -0.004 -0.007 -0.002    0.008  0.018  0.005
 Fe        -0.000 -0.001 -0.000    0.001 -0.000 -0.000    0.000 -0.000 -0.000
 O          0.014 -0.008 -0.000    0.007 -0.004 -0.000   -0.018  0.010  0.000
 O          0.006 -0.003 -0.000    0.038 -0.021 -0.001    0.019 -0.011 -0.000
 O         -0.001 -0.001  0.009   -0.001 -0.001  0.007    0.002  0.004 -0.020
 O          0.002  0.004 -0.014    0.001  0.002 -0.008   -0.002 -0.004  0.020
 H          0.573  0.053  0.084   -0.220 -0.021 -0.032    0.276  0.026  0.040
 H         -0.068  0.126  0.021   -0.059  0.108  0.018    0.138 -0.255 -0.042
 H         -0.093  0.108 -0.181   -0.044  0.051 -0.085    0.113 -0.132  0.222
 H         -0.054  0.008  0.076   -0.363  0.052  0.510   -0.179  0.025  0.250
 H         -0.047 -0.085 -0.104   -0.032 -0.058 -0.072    0.094  0.170  0.212
 H          0.067  0.119  0.151    0.040  0.070  0.089   -0.094 -0.167 -0.211
 H         -0.091 -0.175  0.073   -0.051 -0.098  0.042    0.124  0.237 -0.102
 H         -0.038  0.043 -0.074   -0.254  0.292 -0.494   -0.125  0.144 -0.243
 H          0.134  0.012  0.022    0.118  0.009  0.019   -0.258 -0.023 -0.043
 H          0.063  0.107 -0.048    0.046  0.078 -0.035   -0.133 -0.226  0.101
 H         -0.289  0.531  0.086    0.116 -0.210 -0.034   -0.142  0.262  0.042
 H         -0.134  0.018  0.186   -0.063  0.009  0.087    0.164 -0.022 -0.227
 TransDip   0.026  0.755  0.250   -0.680  0.241  0.006   -0.017  0.029  0.001

 Mode:                46                     47                     48
 Frequency:      3745.49                3745.94                3745.96
 Force Cnst:      8.9644                 8.9686                 8.9676
 Red. Mass:       1.0846                 1.0848                 1.0847
 IR Active:          YES                    YES                    YES
 IR Intens:      563.361                498.332                794.893
 Raman Active:       YES                    YES                    YES
               X      Y      Z        X      Y      Z        X      Y      Z
 O         -0.014  0.008 -0.000   -0.000  0.000 -0.000    0.000 -0.000 -0.000
 O         -0.062  0.031 -0.001   -0.002  0.001 -0.000   -0.003  0.001 -0.000
 Fe        -0.000  0.000 -0.000    0.000 -0.000 -0.000   -0.000 -0.000 -0.000
 O         -0.000 -0.000  0.002    0.008  0.017 -0.068   -0.001 -0.001  0.005
 O         -0.000  0.000  0.000    0.001  0.002 -0.009   -0.000 -0.000  0.001
 O          0.001  0.002  0.001   -0.002 -0.004 -0.001   -0.025 -0.044 -0.011
 O          0.001  0.002  0.000   -0.001 -0.003 -0.001   -0.023 -0.042 -0.011
 H          0.160  0.020  0.025    0.005  0.001  0.001    0.000 -0.000 -0.000
 H          0.291 -0.581 -0.099    0.008 -0.015 -0.003    0.010 -0.021 -0.004
 H         -0.006  0.007 -0.011    0.298 -0.333  0.535   -0.023  0.025 -0.041
 H          0.004 -0.000 -0.005   -0.056  0.009  0.073    0.005 -0.001 -0.007
 H         -0.007 -0.012 -0.016    0.015  0.027  0.036    0.158  0.288  0.383
 H         -0.007 -0.012 -0.017    0.011  0.019  0.026    0.155  0.272  0.369
 H         -0.011 -0.021  0.010    0.011  0.021 -0.010    0.206  0.395 -0.187
 H          0.002 -0.002  0.003    0.040 -0.044  0.072   -0.003  0.004 -0.006
 H          0.698  0.086  0.121    0.019  0.002  0.003    0.037  0.004  0.006
 H         -0.008 -0.014  0.007    0.019  0.032 -0.016    0.240  0.408 -0.201
 H          0.070 -0.140 -0.023    0.002 -0.004 -0.001   -0.004  0.008  0.001
 H          0.011 -0.002 -0.015   -0.421  0.068  0.550    0.031 -0.005 -0.041
 TransDip   0.668 -0.363 -0.008   -0.028 -0.121  0.704    0.452  0.767  0.152

 Mode:                49                     50                     51
 Frequency:      3746.55                3746.86                3748.11
 Force Cnst:      8.9704                 8.9716                 8.9789
 Red. Mass:       1.0847                 1.0846                 1.0848
 IR Active:          YES                    YES                    YES
 IR Intens:        1.217                218.760                290.108
 Raman Active:       YES                    YES                    YES
               X      Y      Z        X      Y      Z        X      Y      Z
 O         -0.003  0.001  0.000   -0.062  0.031 -0.001   -0.001  0.000 -0.000
 O          0.000 -0.000 -0.000    0.015 -0.007  0.000    0.000 -0.000  0.000
 Fe        -0.000 -0.000 -0.000   -0.000  0.000 -0.000    0.000  0.000 -0.000
 O          0.000  0.000 -0.001   -0.000  0.000  0.000   -0.001 -0.002  0.009
 O          0.000  0.000 -0.000   -0.000 -0.000  0.001    0.007  0.016 -0.069
 O          0.024  0.042  0.011   -0.001 -0.003 -0.001   -0.000 -0.000 -0.000
 O         -0.024 -0.044 -0.012    0.001  0.001  0.001    0.000  0.000 -0.000
 H          0.034  0.004  0.005    0.692  0.089  0.107    0.006  0.001  0.001
 H         -0.002  0.003  0.001   -0.067  0.135  0.023   -0.001  0.002  0.000
 H          0.003 -0.004  0.006    0.001 -0.001  0.002   -0.040  0.045 -0.072
 H         -0.003  0.000  0.004    0.005 -0.001 -0.006   -0.420  0.071  0.554
 H         -0.150 -0.274 -0.365    0.010  0.018  0.025    0.002  0.004  0.005
 H          0.164  0.287  0.391   -0.006 -0.010 -0.014    0.000  0.001  0.001
 H          0.218  0.419 -0.198   -0.006 -0.012  0.006   -0.002 -0.004  0.002
 H          0.002 -0.002  0.004   -0.003  0.003 -0.005    0.302 -0.332  0.536
 H         -0.004 -0.001 -0.001   -0.164 -0.020 -0.029   -0.003 -0.000 -0.000
 H         -0.228 -0.387  0.191    0.014  0.023 -0.012    0.000  0.000 -0.000
 H          0.014 -0.028 -0.005    0.295 -0.588 -0.099    0.003 -0.005 -0.001
 H         -0.004  0.001  0.006    0.003 -0.000 -0.004    0.057 -0.009 -0.074
 TransDip   0.024  0.010  0.024    0.430 -0.199 -0.002   -0.053 -0.126  0.528

 STANDARD THERMODYNAMIC QUANTITIES AT   298.15 K  AND     1.00 ATM

   This Molecule has  0 Imaginary Frequencies
   Zero point vibrational energy:       92.260 kcal/mol

   Atom    1 Element O  Has Mass   15.99491
   Atom    2 Element O  Has Mass   15.99491
   Atom    3 Element Fe Has Mass   55.93490
   Atom    4 Element O  Has Mass   15.99491
   Atom    5 Element O  Has Mass   15.99491
   Atom    6 Element O  Has Mass   15.99491
   Atom    7 Element O  Has Mass   15.99491
   Atom    8 Element H  Has Mass    1.00783
   Atom    9 Element H  Has Mass    1.00783
   Atom   10 Element H  Has Mass    1.00783
   Atom   11 Element H  Has Mass    1.00783
   Atom   12 Element H  Has Mass    1.00783
   Atom   13 Element H  Has Mass    1.00783
   Atom   14 Element H  Has Mass    1.00783
   Atom   15 Element H  Has Mass    1.00783
   Atom   16 Element H  Has Mass    1.00783
   Atom   17 Element H  Has Mass    1.00783
   Atom   18 Element H  Has Mass    1.00783
   Atom   19 Element H  Has Mass    1.00783
   Molecular Mass:   163.998320 amu
   Principal axes and moments of inertia in amu*Bohr^2:
                             1           2           3
    Eigenvalues --     1130.16209  1134.01987  1136.94416
          X               0.82026    -0.54698    -0.16728
          Y               0.26997     0.11240     0.95629
          Z               0.50427     0.82956    -0.23986
   Rotational Symmetry Number is   1
   The Molecule is an Asymmetric Top
   Translational Enthalpy:        0.889 kcal/mol
   Rotational Enthalpy:           0.889 kcal/mol
   Vibrational Enthalpy:        101.369 kcal/mol
   gas constant (RT):             0.592 kcal/mol
   Translational Entropy:        41.192  cal/mol.K
   Rotational Entropy:           28.767  cal/mol.K
   Vibrational Entropy:          54.809  cal/mol.K

   Total Enthalpy:              103.738 kcal/mol
   Total Entropy:               124.768  cal/mol.K
 Total job time:  901.40s(wall), 15357.78s(cpu) 
 Fri May 31 09:11:22 2024

        *************************************************************
        *                                                           *
        *  Thank you very much for using Q-Chem.  Have a nice day.  *
        *                                                           *
        *************************************************************


