
Running Job 1 of 1 FeH2O6_opt.in
qchem FeH2O6_opt.in_372519.0 /data/scratch/FeH2O6_opt20240530202637/ 0
/opt/qchem/6.0.1/exe/qcprog.exe_s FeH2O6_opt.in_372519.0 /data/scratch/FeH2O6_opt20240530202637/
                  Welcome to Q-Chem
     A Quantum Leap Into The Future Of Chemistry


 Q-Chem 6.0, Q-Chem, Inc., Pleasanton, CA (2022)

 E. Epifanovsky,  A. T. B. Gilbert,  Xintian Feng,  Joonho Lee,  Yuezhi Mao,  
 N. Mardirossian,  P. Pokhilko,  A. White,  M. Wormit,  M. P. Coons,  
 A. L. Dempwolff,  Zhengting Gan,  D. Hait,  P. R. Horn,  L. D. Jacobson,  
 I. Kaliman,  J. Kussmann,  A. W. Lange,  Ka Un Lao,  D. S. Levine,  Jie Liu,  
 S. C. McKenzie,  A. F. Morrison,  K. Nanda,  F. Plasser,  D. R. Rehn,  
 M. L. Vidal,  Zhi-Qiang You,  Ying Zhu,  B. Alam,  B. Albrecht,  
 A. Aldossary,  E. Alguire,  J. H. Andersen,  V. Athavale,  D. Barton,  
 K. Begam,  A. Behn,  N. Bellonzi,  Y. A. Bernard,  E. J. Berquist,  
 H. Burton,  A. Carreras,  K. Carter-Fenk,  Romit Chakraborty,  
 Chandrima Chakravarty,  Junhan Chen,  A. D. Chien,  K. D. Closser,  
 V. Cofer-Shabica,  L. Cunha,  S. Dasgupta,  Jia Deng,  M. de Wergifosse,  
 M. Diedenhofen,  Hainam Do,  S. Ehlert,  Po-Tung Fang,  S. Fatehi,  
 Qingguo Feng,  T. Friedhoff,  B. Ganoe,  J. Gayvert,  Qinghui Ge,  
 G. Gidofalvi,  M. Goldey,  J. Gomes,  C. Gonzalez-Espinoza,  S. Gulania,  
 A. Gunina,  J. A. Gyamfi,  M. W. D. Hanson-Heine,  P. H. P. Harbach,  
 A. W. Hauser,  M. F. Herbst,  M. Hernandez Vera,  M. Hodecker,  
 Z. C. Holden,  S. Houck,  Xunkun Huang,  Kerwin Hui,  B. C. Huynh,  
 K. Ikeda,  M. Ivanov,  Hyunjun Ji,  Zuxin Jin,  Hanjie Jiang,  B. Kaduk,  
 S. Kaehler,  R. Kang,  K. Khistyaev,  Jaehoon Kim,  Yongbin Kim,  
 P. Klunzinger,  Z. Koczor-Benda,  Joong Hoon Koh,  D. Kosenkov,  
 Saikiran Kotaru,  L. Koulias,  T. Kowalczyk,  C. M. Krauter,  K. Kue,  
 A. Kunitsa,  T. Kus,  A. Landau,  K. V. Lawler,  D. Lefrancois,  S. Lehtola,  
 Rain Li,  Shaozhi Li,  Yi-Pei Li,  Jiashu Liang,  M. Liebenthal,  
 Hung-Hsuan Lin,  You-Sheng Lin,  Fenglai Liu,  Kuan-Yu Liu,  
 M. Loipersberger,  A. Luenser,  C. Malbon,  A. Manjanath,  P. Manohar,  
 E. Mansoor,  S. F. Manzer,  Shan-Ping Mao,  A. V. Marenich,  T. Markovich,  
 S. Mason,  F. Matz,  S. A. Maurer,  P. F. McLaughlin,  M. F. S. J. Menger,  
 J.-M. Mewes,  S. A. Mewes,  P. Morgante,  Mohammad Mostafanejad,  
 J. W. Mullinax,  K. J. Oosterbaan,  G. Paran,  V. Parravicini,  
 Alexander C. Paul,  Suranjan K. Paul,  F. Pavosevic,  Zheng Pei,  S. Prager,  
 E. I. Proynov,  E. Ramos,  B. Rana,  A. E. Rask,  A. Rettig,  R. M. Richard,  
 F. Rob,  E. Rossomme,  T. Scheele,  M. Scheurer,  M. Schneider,  
 P. E. Schneider,  N. Sergueev,  S. M. Sharada,  Hengyuan Shen,  
 W. Skomorowski,  D. W. Small,  C. J. Stein,  Yingli Su,  Yu-Chuan Su,  
 E. J. Sundstrom,  Zhen Tao,  J. Thirman,  Hung-Yi Tsai,  T. Tsuchimochi,  
 N. M. Tubman,  C. Utku,  S. P. Veccham,  O. Vydrov,  J. Wenzel,  
 Jonathan Wong,  J. Witte,  A. Yamada,  Chou-Hsun Yang,  Kun Yao,  
 S. Yeganeh,  S. R. Yost,  A. Zech,  F. Zeller,  Igor Ying Zhang,  
 Xing Zhang,  Yu Zhang,  D. Zuev,  A. Aspuru-Guzik,  A. T. Bell,  
 N. A. Besley,  K. B. Bravaya,  B. R. Brooks,  D. Casanova,  Jeng-Da Chai,  
 Hsing-Ta Chen,  S. Coriani,  C. J. Cramer,  A. E. DePrince, III,  
 R. A. DiStasio Jr.,  A. Dreuw,  B. D. Dunietz,  T. R. Furlani,  
 W. A. Goddard III,  S. Grimme,  S. Hammes-Schiffer,  T. Head-Gordon,  
 W. J. Hehre,  Chao-Ping Hsu,  T.-C. Jagau,  Yousung Jung,  A. Klamt,  
 Jing Kong,  D. S. Lambrecht,  Xiangyuan Li,  WanZhen Liang,  N. J. Mayhall,  
 C. W. McCurdy,  J. B. Neaton,  T. Neudecker,  C. Ochsenfeld,  
 J. A. Parkhill,  R. Peverati,  V. A. Rassolov,  Haisheng Ren,  Yihan Shao,  
 L. V. Slipchenko,  R. P. Steele,  J. E. Subotnik,  A. J. W. Thom,  
 A. Tkatchenko,  D. G. Truhlar,  T. Van Voorhis,  Fan Wang,  
 T. A. Wesolowski,  K. B. Whaley,  H. L. Woodcock III,  P. M. Zimmerman,  
 S. Faraji,  P. M. W. Gill,  M. Head-Gordon,  J. M. Herbert,  A. I. Krylov

 Contributors to earlier versions of Q-Chem not listed above: 
 R. D. Adamson,  B. Austin,  R. Baer,  J. Baker,  G. J. O. Beran,  
 K. Brandhorst,  S. T. Brown,  E. F. C. Byrd,  Arup K. Chakraborty,  
 G. K. L. Chan,  Chun-Min Chang,  Yunqing Chen,  C.-L. Cheng,  
 Siu Hung Chien,  D. M. Chipman,  D. L. Crittenden,  H. Dachsel,  
 R. J. Doerksen,  A. D. Dutoi,  R. G. Edgar,  J. Fosso-Tande,  
 L. Fusti-Molnar,  D. Ghosh,  A. Ghysels,  A. Golubeva-Zadorozhnaya,  
 J. Gonthier,  M. S. Gordon,  S. R. Gwaltney,  G. Hawkins,  J. E. Herr,  
 A. Heyden,  S. Hirata,  E. G. Hohenstein,  G. Kedziora,  F. J. Keil,  
 C. Kelley,  Jihan Kim,  R. A. King,  R. Z. Khaliullin,  P. P. Korambath,  
 W. Kurlancheek,  A. Laurent,  A. M. Lee,  M. S. Lee,  S. V. Levchenko,  
 Ching Yeh Lin,  D. Liotard,  E. Livshits,  R. C. Lochan,  I. Lotan,  
 L. A. Martinez-Martinez,  P. E. Maslen,  N. Nair,  D. P. O'Neill,  
 D. Neuhauser,  E. Neuscamman,  C. M. Oana,  R. Olivares-Amaya,  R. Olson,  
 T. M. Perrine,  B. Peters,  P. A. Pieniazek,  A. Prociuk,  Y. M. Rhee,  
 J. Ritchie,  M. A. Rohrdanz,  E. Rosta,  N. J. Russ,  H. F. Schaefer III,  
 M. W. Schmidt,  N. E. Schultz,  S. Sharma,  N. Shenvi,  C. D. Sherrill,  
 A. C. Simmonett,  A. Sodt,  T. Stein,  D. Stuck,  K. S. Thanthiriwatte,  
 V. Vanovschi,  L. Vogt,  Tao Wang,  A. Warshel,  M. A. Watson,  
 C. F. Williams,  Q. Wu,  X. Xu,  Jun Yang,  W. Zhang,  Yan Zhao

   Please cite Q-Chem as follows:
  "Software for the frontiers of quantum chemistry:
   An overview of developments in the Q-Chem 5 package"
   J. Chem. Phys. 155, 084801 (2021)
   https://doi.org/10.1063/5.0055522 (open access)

 Q-Chem 6.0.2 for Intel X86 EM64T Linux

 Parts of Q-Chem use Armadillo 9.900.5 (Nocturnal Misbehaviour).
 http://arma.sourceforge.net/

 Q-Chem begins on Thu May 30 20:26:38 2024  

 Host: 
0

     Scratch files written to /data/scratch/FeH2O6_opt20240530202637//
 Dec722 |scratch|qcdevops|jenkins|workspace|build_RNUM 8907   
 Processing $rem in /opt/qchem/6.0.1/config/preferences:
 Processing $rem in /home/sgardner/.qchemrc:
 Symmetry turned off for PCM/SM12/SMD calculation

 Checking the input file for inconsistencies... 	...done.

--------------------------------------------------------------
User input:
--------------------------------------------------------------
$molecule
3 6
O   -0.1966467   -2.1927901   -0.5815238
O    1.1966317    1.3286611    0.1587176
Fe    0.5102418   -0.4308477   -0.2276229
O   -1.2893854    0.2633235   -0.2035320
O    2.3214187   -1.1206314   -0.2300016
O    0.6059552   -0.0719843   -2.1292792
O    0.3971014   -0.7740772    1.6625529
H   -1.0242987   -2.0596974   -1.1081340
H    0.7221007    1.9591699   -0.4391060
H   -1.3842712    0.8476783   -0.9969230
H    2.6714509   -1.0848977   -1.1542047
H    0.8566922   -0.9124967   -2.5874081
H    0.9479480   -1.5765318    1.8424776
H   -0.5297982   -1.0781231    1.8323547
H    2.2811585   -2.0857360   -0.0134760
H    2.1359918    1.3490929   -0.1539217
H    1.3764730    0.5309898   -2.2796203
H    0.4199685   -2.6498041   -1.2066097
H   -1.3387013    0.8835221    0.5670209
$end

$rem
BASIS  =  gen
DFT_D  =  D3_BJ
GUI  =  2
JOB_TYPE  =  Optimization
METHOD  =  B3LYP
SCF_CONVERGENCE  =  8
SOLVENT_METHOD  =  PCM
MAX_SCF_CYCLES = 200
$end


$pcm
THEORY  CPCM
$end

$solvent
DIELECTRIC  78.39
$end

$van_der_waals
26   2.44
$end

!----------------------------------------------------------------------
! Basis Set Exchange
! Basis set: cc-pVDZ
!----------------------------------------------------------------------

$rem
BASIS GEN
PURECART 11
$end

$basis
H     0
S   4   1.00
1.301000D+01           1.968500D-02
1.962000D+00           1.379770D-01
4.446000D-01           4.781480D-01
1.220000D-01           5.012400D-01
S   1   1.00
1.220000D-01           1.000000D+00
P   1   1.00
7.270000D-01           1.0000000
****
C     0
S   9   1.00
6.665000D+03           6.920000D-04
1.000000D+03           5.329000D-03
2.280000D+02           2.707700D-02
6.471000D+01           1.017180D-01
2.106000D+01           2.747400D-01
7.495000D+00           4.485640D-01
2.797000D+00           2.850740D-01
5.215000D-01           1.520400D-02
1.596000D-01          -3.191000D-03
S   9   1.00
6.665000D+03          -1.460000D-04
1.000000D+03          -1.154000D-03
2.280000D+02          -5.725000D-03
6.471000D+01          -2.331200D-02
2.106000D+01          -6.395500D-02
7.495000D+00          -1.499810D-01
2.797000D+00          -1.272620D-01
5.215000D-01           5.445290D-01
1.596000D-01           5.804960D-01
S   1   1.00
1.596000D-01           1.000000D+00
P   4   1.00
9.439000D+00           3.810900D-02
2.002000D+00           2.094800D-01
5.456000D-01           5.085570D-01
1.517000D-01           4.688420D-01
P   1   1.00
1.517000D-01           1.000000D+00
D   1   1.00
5.500000D-01           1.0000000
****
N     0
S   9   1.00
9.046000D+03           7.000000D-04
1.357000D+03           5.389000D-03
3.093000D+02           2.740600D-02
8.773000D+01           1.032070D-01
2.856000D+01           2.787230D-01
1.021000D+01           4.485400D-01
3.838000D+00           2.782380D-01
7.466000D-01           1.544000D-02
2.248000D-01          -2.864000D-03
S   9   1.00
9.046000D+03          -1.530000D-04
1.357000D+03          -1.208000D-03
3.093000D+02          -5.992000D-03
8.773000D+01          -2.454400D-02
2.856000D+01          -6.745900D-02
1.021000D+01          -1.580780D-01
3.838000D+00          -1.218310D-01
7.466000D-01           5.490030D-01
2.248000D-01           5.788150D-01
S   1   1.00
2.248000D-01           1.000000D+00
P   4   1.00
1.355000D+01           3.991900D-02
2.917000D+00           2.171690D-01
7.973000D-01           5.103190D-01
2.185000D-01           4.622140D-01
P   1   1.00
2.185000D-01           1.000000D+00
D   1   1.00
8.170000D-01           1.0000000
****
O     0
S   9   1.00
1.172000D+04           7.100000D-04
1.759000D+03           5.470000D-03
4.008000D+02           2.783700D-02
1.137000D+02           1.048000D-01
3.703000D+01           2.830620D-01
1.327000D+01           4.487190D-01
5.025000D+00           2.709520D-01
1.013000D+00           1.545800D-02
3.023000D-01          -2.585000D-03
S   9   1.00
1.172000D+04          -1.600000D-04
1.759000D+03          -1.263000D-03
4.008000D+02          -6.267000D-03
1.137000D+02          -2.571600D-02
3.703000D+01          -7.092400D-02
1.327000D+01          -1.654110D-01
5.025000D+00          -1.169550D-01
1.013000D+00           5.573680D-01
3.023000D-01           5.727590D-01
S   1   1.00
3.023000D-01           1.000000D+00
P   4   1.00
1.770000D+01           4.301800D-02
3.854000D+00           2.289130D-01
1.046000D+00           5.087280D-01
2.753000D-01           4.605310D-01
P   1   1.00
2.753000D-01           1.000000D+00
D   1   1.00
1.185000D+00           1.0000000
****
Fe     0
S   20   1.00
4.316265D+06           8.048803D-06
6.463424D+05           6.258306D-05
1.470897D+05           3.290239D-04
4.166152D+04           1.387355D-03
1.359077D+04           5.023256D-03
4.905750D+03           1.610140D-02
1.912746D+03           4.590034D-02
7.926043D+02           1.136154D-01
3.448065D+02           2.283869D-01
1.558999D+02           3.221159D-01
7.223091D+01           2.383661D-01
3.272506D+01           7.404667D-02
1.566762D+01           9.214197D-02
7.503483D+00           9.339790D-02
3.312223D+00           1.573965D-02
1.558471D+00          -4.186682D-04
6.839140D-01           5.376318D-05
1.467570D-01          -3.816654D-05
7.058300D-02           4.319603D-05
3.144900D-02          -3.401019D-06
S   20   1.00
4.316265D+06          -4.155954D-06
6.463424D+05          -3.231401D-05
1.470897D+05          -1.699525D-04
4.166152D+04          -7.171369D-04
1.359077D+04          -2.603625D-03
4.905750D+03          -8.399109D-03
1.912746D+03          -2.434109D-02
7.926043D+02          -6.251948D-02
3.448065D+02          -1.365929D-01
1.558999D+02          -2.312707D-01
7.223091D+01          -2.383734D-01
3.272506D+01           3.123837D-02
1.566762D+01           5.086818D-01
7.503483D+00           4.987695D-01
3.312223D+00           9.033552D-02
1.558471D+00          -6.005337D-03
6.839140D-01           2.312454D-04
1.467570D-01          -5.643680D-04
7.058300D-02           4.992260D-04
3.144900D-02          -1.015293D-04
S   20   1.00
4.316265D+06           9.532178D-07
6.463424D+05           7.414605D-06
1.470897D+05           3.898393D-05
4.166152D+04           1.647152D-04
1.359077D+04           5.985980D-04
4.905750D+03           1.942390D-03
1.912746D+03           5.687237D-03
7.926043D+02           1.501329D-02
3.448065D+02           3.452455D-02
1.558999D+02           6.495820D-02
7.223091D+01           7.716194D-02
3.272506D+01          -1.873411D-02
1.566762D+01          -3.009185D-01
7.503483D+00          -4.554661D-01
3.312223D+00           1.286463D-01
1.558471D+00           7.183316D-01
6.839140D-01           4.051743D-01
1.467570D-01           2.168227D-02
7.058300D-02          -8.343566D-03
3.144900D-02           3.658979D-03
S   20   1.00
4.316265D+06          -2.063008D-07
6.463424D+05          -1.604169D-06
1.470897D+05          -8.438437D-06
4.166152D+04          -3.563151D-05
1.359077D+04          -1.295998D-04
4.905750D+03          -4.201534D-04
1.912746D+03          -1.231954D-03
7.926043D+02          -3.248922D-03
3.448065D+02          -7.493717D-03
1.558999D+02          -1.410102D-02
7.223091D+01          -1.691600D-02
3.272506D+01           4.218996D-03
1.566762D+01           6.833810D-02
7.503483D+00           1.098201D-01
3.312223D+00          -4.009005D-02
1.558471D+00          -2.174739D-01
6.839140D-01          -2.465135D-01
1.467570D-01           2.731435D-01
7.058300D-02           5.748321D-01
3.144900D-02           3.012713D-01
S   20   1.00
4.316265D+06          -4.009367D-07
6.463424D+05          -3.189255D-06
1.470897D+05          -1.623079D-05
4.166152D+04          -7.157920D-05
1.359077D+04          -2.463958D-04
4.905750D+03          -8.544907D-04
1.912746D+03          -2.307593D-03
7.926043D+02          -6.728292D-03
3.448065D+02          -1.366165D-02
1.558999D+02          -3.062240D-02
7.223091D+01          -2.631137D-02
3.272506D+01          -9.760183D-03
1.566762D+01           1.801906D-01
7.503483D+00           1.529634D-01
3.312223D+00           5.505413D-02
1.558471D+00          -9.551364D-01
6.839140D-01           2.586813D-01
1.467570D-01           1.834049D+00
7.058300D-02          -9.333240D-01
3.144900D-02          -6.981605D-01
S   1   1.00
3.144900D-02           1.000000D+00
P   16   1.00
1.774569D+04           4.100000D-05
4.200721D+03           3.690000D-04
1.364429D+03           2.129000D-03
5.220806D+02           9.369000D-03
2.214595D+02           3.309700D-02
1.009096D+02           9.443100D-02
4.840115D+01           2.080770D-01
2.398536D+01           3.323330D-01
1.218250D+01           3.329870D-01
6.242298D+00           1.568430D-01
3.110944D+00           2.154900D-02
1.509958D+00          -2.095000D-03
7.108450D-01          -1.739000D-03
2.731900D-01          -3.000000D-04
1.042330D-01           2.900000D-05
3.829100D-02          -1.100000D-05
P   16   1.00
1.774569D+04          -1.500000D-05
4.200721D+03          -1.300000D-04
1.364429D+03          -7.510000D-04
5.220806D+02          -3.329000D-03
2.214595D+02          -1.191200D-02
1.009096D+02          -3.493300D-02
4.840115D+01          -7.998900D-02
2.398536D+01          -1.346360D-01
1.218250D+01          -1.385980D-01
6.242298D+00           3.027800D-02
3.110944D+00           3.332160D-01
1.509958D+00           4.561530D-01
7.108450D-01           2.850510D-01
2.731900D-01           4.614400D-02
1.042330D-01          -3.249000D-03
3.829100D-02           1.357000D-03
P   16   1.00
1.774569D+04           5.000000D-06
4.200721D+03           4.200000D-05
1.364429D+03           2.410000D-04
5.220806D+02           1.085000D-03
2.214595D+02           3.831000D-03
1.009096D+02           1.142300D-02
4.840115D+01           2.579200D-02
2.398536D+01           4.481800D-02
1.218250D+01           4.459800D-02
6.242298D+00          -1.117700D-02
3.110944D+00          -1.381340D-01
1.509958D+00          -1.882850D-01
7.108450D-01          -1.073990D-01
2.731900D-01           4.448630D-01
1.042330D-01           6.402390D-01
3.829100D-02           6.445700D-02
P   16   1.00
1.774569D+04           3.000000D-06
4.200721D+03           2.900000D-05
1.364429D+03           1.650000D-04
5.220806D+02           7.340000D-04
2.214595D+02           2.626000D-03
1.009096D+02           7.725000D-03
4.840115D+01           1.773300D-02
2.398536D+01           3.005500D-02
1.218250D+01           3.109400D-02
6.242298D+00          -1.004800D-02
3.110944D+00          -8.830600D-02
1.509958D+00          -1.298240D-01
7.108450D-01          -7.693700D-02
2.731900D-01           2.126610D-01
1.042330D-01           5.730610D-01
3.829100D-02           3.696510D-01
P   1   1.00
3.829100D-02           1.000000D+00
D   8   1.00
1.133440D+02           3.530000D-03
3.364140D+01           2.578400D-02
1.233100D+01           9.911900D-02
4.994780D+00           2.390730D-01
2.072800D+00           3.571990D-01
8.307530D-01           3.621880D-01
3.091780D-01           2.364610D-01
1.001300D-01           6.011800D-02
D   8   1.00
1.133440D+02          -3.890000D-03
3.364140D+01          -2.844200D-02
1.233100D+01          -1.124290D-01
4.994780D+00          -2.742570D-01
2.072800D+00          -3.155460D-01
8.307530D-01           5.710900D-02
3.091780D-01           5.636040D-01
1.001300D-01           3.846370D-01
D   1   1.00
1.001300D-01           1.000000D+00
F   2   1.00
3.224300D+00           4.222490D-01
7.758000D-01           7.714680D-01
****
$end


--------------------------------------------------------------
 Adding empirical dispersion correction 
 ----------------------------------------------------------------
 Doing -D3(BJ) with
 s6  =   1.00000
 s8  =   1.98890
 a1  =   0.39810
 a2  =   4.42110
 -D3 energy without 3body term =     -0.0258889171 hartrees
 ----------------------------------------------------------------
             Standard Nuclear Orientation (Angstroms)
    I     Atom           X                Y                Z
 ----------------------------------------------------------------
    1      O      -0.1966467000    -2.1927901000    -0.5815238000
    2      O       1.1966317000     1.3286611000     0.1587176000
    3      Fe      0.5102418000    -0.4308477000    -0.2276229000
    4      O      -1.2893854000     0.2633235000    -0.2035320000
    5      O       2.3214187000    -1.1206314000    -0.2300016000
    6      O       0.6059552000    -0.0719843000    -2.1292792000
    7      O       0.3971014000    -0.7740772000     1.6625529000
    8      H      -1.0242987000    -2.0596974000    -1.1081340000
    9      H       0.7221007000     1.9591699000    -0.4391060000
   10      H      -1.3842712000     0.8476783000    -0.9969230000
   11      H       2.6714509000    -1.0848977000    -1.1542047000
   12      H       0.8566922000    -0.9124967000    -2.5874081000
   13      H       0.9479480000    -1.5765318000     1.8424776000
   14      H      -0.5297982000    -1.0781231000     1.8323547000
   15      H       2.2811585000    -2.0857360000    -0.0134760000
   16      H       2.1359918000     1.3490929000    -0.1539217000
   17      H       1.3764730000     0.5309898000    -2.2796203000
   18      H       0.4199685000    -2.6498041000    -1.2066097000
   19      H      -1.3387013000     0.8835221000     0.5670209000
 ----------------------------------------------------------------
 Nuclear Repulsion Energy =         727.42185616 hartrees
 There are       44 alpha and       39 beta electrons
 Requested basis set is non-standard
 There are 87 shells and 187 basis functions

 Total QAlloc Memory Limit   8000 MB
 Mega-Array Size       188 MB
 MEM_STATIC part       192 MB

 -----------------------------------------------------------------------
                STARTING GEOMETRY OPTIMIZER USING LIBOPT3
                by Peter F. McLaughlin, Yu Zhang, Evgeny Epifanovsky
 -----------------------------------------------------------------------

              Initial Energy and Gradient Calculation
   -- Checking Topology for Ill-Behaving Coordinates --

 -------------------------------------------
   Coordinate       |  Removed | Additions 
 -------------------------------------------
	Bonds                     0          0
	Angles                    3          0
	Torsions                 12         12
	Co-Linear Type5s          0         12
	Co-Linear Type6s          0         12
 -------------------------------------------

 ** Ill-Behaving Topology Definitions (No action needed.) **

  Ill-Defined Angles Removed: 
   1   3   2,   4   3   5,   6   3   7

  Ill-Defined Torsions Removed: 
   1   3   2   9,   1   3   2  16,   2   3   1   8,   2   3   1  18,   4   3   5  11
   4   3   5  15,   6   3   7  13,   6   3   7  14,  10   4   3   5,  12   6   3   7
  17   6   3   7,  19   4   3   5

     Done Checking Topology
 Adding empirical dispersion correction 
 ----------------------------------------------------------------
 Doing -D3(BJ) with
 s6  =   1.00000
 s8  =   1.98890
 a1  =   0.39810
 a2  =   4.42110
 -D3 energy without 3body term =     -0.0258889171 hartrees
 ----------------------------------------------------------------
             Standard Nuclear Orientation (Angstroms)
    I     Atom           X                Y                Z
 ----------------------------------------------------------------
    1      O      -0.1966467000    -2.1927901000    -0.5815238000
    2      O       1.1966317000     1.3286611000     0.1587176000
    3      Fe      0.5102418000    -0.4308477000    -0.2276229000
    4      O      -1.2893854000     0.2633235000    -0.2035320000
    5      O       2.3214187000    -1.1206314000    -0.2300016000
    6      O       0.6059552000    -0.0719843000    -2.1292792000
    7      O       0.3971014000    -0.7740772000     1.6625529000
    8      H      -1.0242987000    -2.0596974000    -1.1081340000
    9      H       0.7221007000     1.9591699000    -0.4391060000
   10      H      -1.3842712000     0.8476783000    -0.9969230000
   11      H       2.6714509000    -1.0848977000    -1.1542047000
   12      H       0.8566922000    -0.9124967000    -2.5874081000
   13      H       0.9479480000    -1.5765318000     1.8424776000
   14      H      -0.5297982000    -1.0781231000     1.8323547000
   15      H       2.2811585000    -2.0857360000    -0.0134760000
   16      H       2.1359918000     1.3490929000    -0.1539217000
   17      H       1.3764730000     0.5309898000    -2.2796203000
   18      H       0.4199685000    -2.6498041000    -1.2066097000
   19      H      -1.3387013000     0.8835221000     0.5670209000
 ----------------------------------------------------------------
 Nuclear Repulsion Energy =         727.42185616 hartrees
 There are       44 alpha and       39 beta electrons
 Using C-PCM dielectric factor f(eps) = (eps-1)/eps = 0.987243
No default van der Waals radius is available for Z = 26
	Found R = 2.4400 A in the $van_der_waals section
 Discretize the solute cavity surface with Lebedev spheres
	Using 110 Lebedev grid points for each H atom
	Using 194 Lebedev grid points for other atoms
	Atomic van der Waals radii (Bondi set) will be scaled by 1.20
 Using smooth SwiG surface discretization
 Remove points where switching function is < 1.0e-08
 Keep 1143 surface tesserae and discard 1535 interior tesserae
 Molecular Surface Area = 153.397 Angst**2

 Requested basis set is non-standard
 There are 87 shells and 187 basis functions
 A cutoff of  1.0D-12 yielded   3805 shell pairs
 There are     17449 function pairs (     19771 Cartesian)
 Smallest overlap matrix eigenvalue = 6.11E-04

 Scale SEOQF with 1.000000e-01/1.000000e-01/1.000000e-01

 Standard Electronic Orientation quadrupole field applied
 Nucleus-field energy     =     0.0000000016 hartrees
 ================ Generating on-the-fly SAD Guess ================
 Attempting to make child job directory: /data/scratch/FeH2O6_opt20240530202637//Frg1/
 Attempting to make child job directory: /data/scratch/FeH2O6_opt20240530202637//Frg2/
 Attempting to make child job directory: /data/scratch/FeH2O6_opt20240530202637//Frg3/
 Creating input file /data/scratch/FeH2O6_opt20240530202637/Frg1.input
 using default PutDataFrgm: nothing
 calling putenv with: QCSCRATCH=/data/scratch/FeH2O6_opt20240530202637/ 
 Spawning Job For Fragment 0
 Done Job For Fragment 0
 calling putenv with: QCSCRATCH=/data/scratch 
 calling putenv with: QCTHREADS=20 
 Creating input file /data/scratch/FeH2O6_opt20240530202637/Frg2.input
 using default PutDataFrgm: nothing
 calling putenv with: QCSCRATCH=/data/scratch/FeH2O6_opt20240530202637/ 
 Spawning Job For Fragment 1
 Done Job For Fragment 1
 calling putenv with: QCSCRATCH=/data/scratch 
 calling putenv with: QCTHREADS=20 
 Creating input file /data/scratch/FeH2O6_opt20240530202637/Frg3.input
 using default PutDataFrgm: nothing
 calling putenv with: QCSCRATCH=/data/scratch/FeH2O6_opt20240530202637/ 
 Spawning Job For Fragment 2
 Done Job For Fragment 2
 calling putenv with: QCSCRATCH=/data/scratch 
 calling putenv with: QCTHREADS=20 
 Time for running child jobs:  CPU 0.70 s  wall 80.87 s
 ============= Method Specific SAD Guess Constructed =============
 Guess from on-the-fly superposition of atomic densities
 Warning: Energy on first SCF cycle will be non-variational

 -----------------------------------------------------------------------
  General SCF calculation program by
  Eric Jon Sundstrom, Paul Horn, Yuezhi Mao, Dmitri Zuev, Alec White,
  David Stuck, Shaama M.S., Shane Yost, Joonho Lee, David Small,
  Daniel Levine, Susi Lehtola, Hugh Burton, Evgeny Epifanovsky,
  Bang C. Huynh
 -----------------------------------------------------------------------
 Exchange:     0.2000 Hartree-Fock + 0.0800 Slater + 0.7200 B88
 Correlation:  0.1900 VWN1RPA + 0.8100 LYP
 Using SG-1 standard quadrature grid
 Dispersion:   Grimme D3
 using 20 threads for integral computing
 -------------------------------------------------------
 OpenMP Integral computing Module                
 Release: version 1.0, May 2013, Q-Chem Inc. Pittsburgh 
 -------------------------------------------------------
 C-PCM solvent model [f = (eps-1)/eps], solve by matrix inversion
 A unrestricted SCF calculation will be
 performed using DIIS
 SCF converges when DIIS error is below 1.0e-08
 ---------------------------------------
  Cycle       Energy         DIIS error
 ---------------------------------------
    1   -1724.9274887066      3.32e-02  
    2   -1721.6873608672      4.56e-03  
    3   -1717.1487542043      2.14e-02  
    4   -1721.8486216931      3.00e-03  
    5   -1721.9519939141      5.07e-04  
    6   -1721.9555097028      8.33e-05  
    7   -1721.9555969742      4.92e-05  
    8   -1721.9556218232      2.66e-05  
    9   -1721.9556313289      2.85e-06  
   10   -1721.9556314656      9.86e-07  
   11   -1721.9556314788      6.83e-07  
   12   -1721.9556314845      2.40e-07  
   13   -1721.9556314854      3.43e-08  
   14   -1721.9556314854      1.82e-08  
   15   -1721.9556314854      9.02e-09  Convergence criterion met
 ---------------------------------------
 SCF time:   CPU 2148.88s  wall 120.00s 
<S^2> =          8.753715542

************** Final PCM Free Energy Summary **************
 G_electrostatic  =      -0.75137749 hartree =    -471.49649307 kcal/mol
 G_cavitation     =       0.00000000 hartree =       0.00000000 kcal/mol
 G_dispersion     =       0.00000000 hartree =       0.00000000 kcal/mol
 G_repulsion      =       0.00000000 hartree =       0.00000000 kcal/mol
 --------------------------------------------------
 Non-electrostatic Free Energy =       0.00000000 hartree =       0.00000000 kcal/mol
 Total                         =      -0.75137749 hartree =    -471.49649307 kcal/mol
 --------------------------------------------------
 SCF Energy (H0 + V/2)                       =   -1721.95563149 
 Solute Internal Energy (H0)                 =   -1721.20425399 
 Total Free Energy (H0 + V/2 + non-elec)     =   -1721.95563149 hartree
                                             = -1080543.46739890 kcal/mol
***********************************************************

 SCF   energy in the final basis set =    -1721.9556314854
 Total energy in the final basis set =    -1721.9556314854
 
 --------------------------------------------------------------
 
                    Orbital Energies (a.u.)
 --------------------------------------------------------------
 
 Alpha MOs
 -- Occupied --
******** -30.2968 -26.1480 -26.1472 -26.1469 -19.2897 -19.2874 -19.2842
-19.2835 -19.2813 -19.2759  -3.7871  -2.5625  -2.5608  -2.5601  -1.1690
 -1.1495  -1.1494  -1.1462  -1.1428  -1.1395  -0.6789  -0.6705  -0.6642
 -0.6504  -0.6475  -0.6425  -0.6402  -0.6295  -0.6090  -0.5938  -0.5677
 -0.5648  -0.5568  -0.5441  -0.5358  -0.4958  -0.4897  -0.4837  -0.4664
 -0.4557  -0.4518  -0.3836  -0.3816
 -- Virtual --
 -0.0781  -0.0255  -0.0209  -0.0065   0.0445   0.0511   0.0590   0.0626
  0.0816   0.0892   0.0950   0.1177   0.1194   0.1356   0.1471   0.1510
  0.2015   0.2287   0.2371   0.2444   0.2535   0.2664   0.2717   0.3095
  0.3195   0.4717   0.4845   0.4926   0.5166   0.5252   0.5299   0.5383
  0.5562   0.5748   0.6057   0.6112   0.6302   0.7066   0.7126   0.7293
  0.7325   0.8156   0.8450   0.8524   0.8974   0.9265   0.9285   0.9378
  0.9900   0.9957   1.0146   1.0180   1.0340   1.0522   1.0684   1.0767
  1.0822   1.0940   1.1136   1.1285   1.1498   1.2176   1.2190   1.2447
  1.2576   1.2634   1.2722   1.3074   1.3252   1.3513   1.3736   1.4149
  1.4235   1.4967   1.5481   1.5595   1.5914   1.6117   1.6359   1.6536
  1.6762   1.7073   1.7289   1.7496   1.7917   1.8447   1.8534   1.8838
  1.9669   1.9698   1.9754   1.9797   1.9810   1.9888   1.9941   2.0152
  2.0258   2.0305   2.0490   2.0606   2.0988   2.1146   2.1426   2.3980
  2.4592   2.5059   2.5798   2.6373   2.6735   2.7145   2.7385   2.7529
  2.7802   2.8117   2.8212   2.8644   2.8740   2.9250   2.9351   2.9475
  2.9640   2.9674   2.9774   2.9979   3.0055   3.0145   3.0224   3.0429
  3.2938   3.3134   3.3241   3.3581   3.3712   3.3859   3.4836   3.4988
  3.5245   3.6092   3.6277   3.6649   3.6944   3.6984   3.7198
 
 Beta MOs
 -- Occupied --
******** -30.2007 -26.0677 -26.0672 -26.0670 -19.2860 -19.2837 -19.2803
-19.2798 -19.2774 -19.2720  -3.5642  -2.3274  -2.3267  -2.3258  -1.1607
 -1.1409  -1.1408  -1.1376  -1.1335  -1.1302  -0.6640  -0.6560  -0.6534
 -0.6443  -0.6397  -0.6251  -0.5933  -0.5687  -0.5640  -0.5577  -0.5380
 -0.5293  -0.4893  -0.4738  -0.4685  -0.4612  -0.4421  -0.4404
 -- Virtual --
 -0.2361  -0.2339  -0.2305  -0.1614  -0.1589  -0.0758  -0.0239  -0.0193
 -0.0048   0.0474   0.0536   0.0612   0.0649   0.0843   0.0923   0.0986
  0.1209   0.1228   0.1405   0.1492   0.1537   0.2269   0.2433   0.2499
  0.2557   0.2667   0.2803   0.2881   0.3115   0.3217   0.4745   0.4897
  0.5010   0.5293   0.5336   0.5433   0.5458   0.5670   0.5818   0.6134
  0.6172   0.6377   0.7217   0.7408   0.7522   0.7545   0.8220   0.8512
  0.8578   0.9025   0.9325   0.9358   0.9470   0.9996   1.0050   1.0203
  1.0307   1.0404   1.0609   1.0732   1.0834   1.0890   1.1018   1.1206
  1.1369   1.1642   1.2236   1.2337   1.2690   1.2726   1.3045   1.3180
  1.3285   1.3533   1.3788   1.4115   1.4280   1.4383   1.5072   1.5504
  1.5630   1.5943   1.6212   1.6430   1.6695   1.6964   1.7268   1.7550
  1.7772   1.8065   1.8577   1.8640   1.8938   1.9694   1.9728   1.9783
  1.9825   1.9887   1.9929   2.0032   2.0212   2.0350   2.0387   2.0566
  2.0691   2.1118   2.1343   2.1635   2.4112   2.4893   2.5331   2.6140
  2.6604   2.7076   2.7355   2.7654   2.8029   2.8264   2.8339   2.8782
  2.8861   2.9038   2.9415   2.9517   2.9600   2.9721   2.9753   2.9838
  3.0286   3.0429   3.1067   3.1160   3.1208   3.3180   3.3434   3.3490
  3.3683   3.3842   3.3996   3.5734   3.5808   3.6010   3.6154   3.6337
  3.6729   3.7009   3.7029   3.7274
 --------------------------------------------------------------
 
          Ground-State Mulliken Net Atomic Charges

     Atom                 Charge (a.u.)    Spin (a.u.)
  --------------------------------------------------------
      1 O                    -0.178850       0.105621
      2 O                    -0.175684       0.109811
      3 Fe                    0.663044       4.298410
      4 O                    -0.189670       0.109896
      5 O                    -0.183413       0.102789
      6 O                    -0.174919       0.101075
      7 O                    -0.181895       0.110101
      8 H                     0.292023       0.004424
      9 H                     0.280364       0.005055
     10 H                     0.290123       0.005736
     11 H                     0.286552       0.006420
     12 H                     0.287535       0.004929
     13 H                     0.277097       0.005276
     14 H                     0.280519       0.005528
     15 H                     0.289250       0.005025
     16 H                     0.282022       0.004666
     17 H                     0.286759       0.005396
     18 H                     0.282675       0.004891
     19 H                     0.286467       0.004950
  --------------------------------------------------------
  Sum of atomic charges =     3.000000
  Sum of spin   charges =     5.000000

 -----------------------------------------------------------------
                    Cartesian Multipole Moments
 -----------------------------------------------------------------
    Charge (ESU x 10^10)
                14.4096
    Dipole Moment (Debye)
         X       9.4902      Y      -7.6958      Z      -9.5336
       Tot      15.4977
    Quadrupole Moments (Debye-Ang)
        XX     -13.8594     XY     -10.2727     YY      -7.7519
        XZ     -14.2435     YZ       2.1586     ZZ     -16.4457
    Octopole Moments (Debye-Ang^2)
       XXX     -21.0027    XXY       4.1088    XYY       7.0945
       YYY      19.6894    XXZ     -17.8704    XYZ      -0.4991
       YYZ     -12.6814    XZZ      -1.3650    YZZ     -12.1771
       ZZZ      -0.1634
    Hexadecapole Moments (Debye-Ang^3)
      XXXX    -247.8779   XXXY      -6.9182   XXYY     -35.3859
      XYYY     -14.3909   YYYY    -207.5150   XXXZ     -35.8600
      XXYZ       3.8110   XYYZ      -1.6657   YYYZ      17.9747
      XXZZ     -55.9871   XYZZ      -6.0903   YYZZ     -43.8038
      XZZZ     -39.4089   YZZZ      -3.8997   ZZZZ    -199.4174
 -----------------------------------------------------------------
 Calculating analytic gradient of the SCF energy
 Gradient of SCF Energy
            1           2           3           4           5           6
    1   0.0263513  -0.0858226   0.0195635  -0.0002573  -0.0386259  -0.2223682
    2   0.0481407  -0.1088821  -0.0135808  -0.2324580   0.1849139   0.0598359
    3   0.2464565   0.2035284  -0.0606935   0.0060630   0.1502248   0.1096922
            7           8           9          10          11          12
    1   0.0689865  -0.1364484  -0.1049400   0.0166109   0.0331475   0.0533826
    2   0.2125466   0.0555214   0.0796573   0.0969782   0.0221804  -0.1767188
    3  -0.0418754  -0.0942515  -0.1219005  -0.1454000  -0.1845508  -0.0517868
           13          14          15          16          17          18
    1   0.1011670  -0.1599047  -0.0442635   0.1590449   0.1514611   0.1378610
    2  -0.1390905  -0.0445758  -0.1743285  -0.0289156   0.1115217  -0.0520154
    3  -0.0038099  -0.0045843   0.0378579  -0.0742773   0.0091478  -0.1156465
           19
    1   0.0250541
    2   0.0992694
    3   0.1358059
 Max gradient component =       2.465E-01
 RMS gradient           =       1.144E-01
 Computing fast CPCM-SWIG gradient
 Updating gradient with PCM contributions...
 -- total gradient after adding PCM contribution --
---------------------------------------------------
  Atom         X              Y              Z     
---------------------------------------------------
   1       0.007262       0.020134       0.029443
   2      -0.013755      -0.026497       0.019274
   3       0.006372      -0.004133      -0.021246
   4       0.014437      -0.028809      -0.001466
   5      -0.016093       0.022402       0.012388
   6      -0.021464       0.002467       0.024938
   7       0.008078       0.023457      -0.022551
   8       0.000330       0.012278      -0.005309
   9      -0.009984      -0.008624      -0.011023
  10       0.012300       0.003900      -0.004542
  11      -0.012075       0.005062      -0.010958
  12       0.005552      -0.011886       0.011767
  13       0.005313      -0.006926      -0.012244
  14      -0.007427      -0.000498      -0.010788
  15      -0.015585      -0.005104      -0.000106
  16       0.002444      -0.011437      -0.009794
  17       0.008743       0.000620       0.013837
  18       0.011972       0.011066      -0.006110
  19       0.013580       0.002527       0.004490
---------------------------------------------------
 Number of fixed atoms: 0
 Gradient time:  CPU 391.82 s  wall 21.49 s

 *****************************************************
             Starting BFGS Algorithm
 *****************************************************
            LIBOPT3 RUN PARAMETERS

  Geometry Optimization Coordinates :
	Delocalized Natural Internal Coordinates

  Step Length Selection Method :
	Eigenvector Following Algorithm

  Convergence Criteria :
	Max Gradient Component    	3.00000000e-04
	Max Displacement Component	1.20000000e-03
	Absolute Energy Difference	1.00000000e-06

  Initial Hessian :
	Approximate Hessian - Simple Internal Coordinate Scaled

  Type of Verification :
	Verify with final updated Hessian
 *****************************************************

	OPTIMIZATION CYCLE:	1

 Scaling Magnitude of Eigenvalues
 	Minimum: -25.00000000	 Maximum: 25.00000000
 51 Hessian Eigenvalues to form next step
   0.10000067   0.10000081   0.10000223   0.10000662   0.10000734
   0.10002203   0.11217226   0.11341241   0.11357915   0.11403729
   0.11946346   0.12298477   0.14737201   0.14810321   0.14985111
   0.15360953   0.16517526   0.20210770   0.20714535   0.20782659
   0.20888382   0.21438354   0.22044336   0.22840907   0.22857827
   0.23029150   0.23142080   0.23625463   0.26372745   0.35512336
   0.37426600   0.37807388   0.39411595   0.45017310   0.48199594
   0.49907042   0.50000000   0.50000000   0.50000000   0.50000401
   0.50814413   0.52054590   0.52329998   0.52417441   0.52476037
   0.52624149   0.53311123   0.53549425   0.54070995   0.54282590
   0.54412707

 Minimum Search taking a RFO step
 Searching for Lambda that minimizes along all modes
	Value of Lambda   -0.04832571
	Norm  of Stepsize  0.36548216
	RMS   of Stepsize  0.05117774

	Performing Iterative Coordinate Back-Transformation

	  Starting from Previous Position

	  iter:	0	rms: 1.0109232873e-01	maxdev: 2.2182085448e-01
	  iter:	1	rms: 2.8477486455e-03	maxdev: 7.6384497438e-03
	  iter:	2	rms: 2.8024190899e-06	maxdev: 7.2942835195e-06
	  iter:	3	rms: 8.8590138845e-12	maxdev: 3.3098482037e-11	 Success!

	Finished Iterative Coordinate Back-Transformation
 Adding empirical dispersion correction 
 ----------------------------------------------------------------
 Doing -D3(BJ) with
 s6  =   1.00000e+00
 s8  =   1.98890e+00
 a1  =   3.98100e-01
 a2  =   4.42110e+00
 -D3 energy without 3body term =     -2.4849882737e-02 hartrees
 ----------------------------------------------------------------
             Standard Nuclear Orientation (Angstroms)
    I     Atom           X                Y                Z
 ----------------------------------------------------------------
    1      O      -0.2282352436    -2.2193922323    -0.6130828816
    2      O       1.2374415148     1.3644208226     0.1543595158
    3      Fe      0.5121214642    -0.4299079954    -0.2241590140
    4      O      -1.3231139511     0.2812318269    -0.2143393557
    5      O       2.3598617868    -1.1397547298    -0.2145463346
    6      O       0.6102747641    -0.0647974589    -2.1700476457
    7      O       0.3997380677    -0.8006007640     1.7029358021
    8      H      -1.0662337301    -2.1275593616    -1.1312810207
    9      H       0.8079729038     2.0563968553    -0.4064138222
   10      H      -1.4756446185     0.8620784449    -1.0010021877
   11      H       2.7789910958    -1.1253624909    -1.1097317690
   12      H       0.8324718457    -0.8680207504    -2.7015488909
   13      H       0.9374830283    -1.5947289229     1.9399869594
   14      H      -0.5161406200    -1.1017088684     1.9266234950
   15      H       2.3822924286    -2.1041762672     0.0085887638
   16      H       2.1841194180     1.4287460908    -0.1258723134
   17      H       1.3559795754     0.5506205355    -2.3885306301
   18      H       0.3393075530    -2.7435105099    -1.2295559501
   19      H      -1.4486563832     0.9008458756     0.5493779796
 ----------------------------------------------------------------
 Nuclear Repulsion Energy =         710.80109152 hartrees
 There are       44 alpha and       39 beta electrons
No default van der Waals radius is available for Z = 26
	Found R = 2.4400 A in the $van_der_waals section
 Discretize the solute cavity surface with Lebedev spheres
	Using 110 Lebedev grid points for each H atom
	Using 194 Lebedev grid points for other atoms
	Atomic van der Waals radii (Bondi set) will be scaled by 1.20
 Using smooth SwiG surface discretization
 Remove points where switching function is < 1.0e-08
 Keep 1173 surface tesserae and discard 1505 interior tesserae
 Molecular Surface Area = 158.738 Angst**2

 Applying Cartesian multipole field
    Component          Value
    ---------          -----
     (2,0,0)        1.00000E-11
     (0,2,0)        2.00000E-11
     (0,0,2)       -3.00000E-11
 Nucleus-field energy     = 1.6205702850e-09 hartrees
 Read the previous MOs as SCF guess

 -----------------------------------------------------------------------
  General SCF calculation program by
  Eric Jon Sundstrom, Paul Horn, Yuezhi Mao, Dmitri Zuev, Alec White,
  David Stuck, Shaama M.S., Shane Yost, Joonho Lee, David Small,
  Daniel Levine, Susi Lehtola, Hugh Burton, Evgeny Epifanovsky,
  Bang C. Huynh
 -----------------------------------------------------------------------
 Requested basis set is non-standard
 There are 87 shells and 187 basis functions
 Exchange:     0.2000 Hartree-Fock + 0.0800 Slater + 0.7200 B88
 Correlation:  0.1900 VWN1RPA + 0.8100 LYP
 Using SG-1 standard quadrature grid
 Dispersion:   Grimme D3
 A cutoff of  1.0D-12 yielded   3801 shell pairs
 There are     17413 function pairs (     19735 Cartesian)
 Smallest overlap matrix eigenvalue = 7.13E-04
 A unrestricted SCF calculation will be
 performed using DIIS
 SCF converges when DIIS error is below 1.0e-08
 ---------------------------------------
  Cycle       Energy         DIIS error
 ---------------------------------------
    1   -1721.2564648942      1.24e-03  
    2   -1721.9829290980      7.18e-04  
    3   -1721.9911397340      3.58e-04  
    4   -1721.9921538691      2.42e-04  
    5   -1721.9927317027      1.22e-04  
    6   -1721.9928798612      3.03e-05  
    7   -1721.9928906954      9.38e-06  
    8   -1721.9928918211      2.67e-06  
    9   -1721.9928919357      5.45e-07  
   10   -1721.9928919446      2.40e-07  
   11   -1721.9928919455      1.91e-07  
   12   -1721.9928919460      2.17e-08  
   13   -1721.9928919461      8.51e-09  Convergence criterion met
 ---------------------------------------
 SCF time:   CPU 1827.08s  wall 103.00s 
<S^2> =          8.753925002

************** Final PCM Free Energy Summary **************
 G_electrostatic  =      -0.73608228 hartree =    -461.89860224 kcal/mol
 G_cavitation     =       0.00000000 hartree =       0.00000000 kcal/mol
 G_dispersion     =       0.00000000 hartree =       0.00000000 kcal/mol
 G_repulsion      =       0.00000000 hartree =       0.00000000 kcal/mol
 --------------------------------------------------
 Non-electrostatic Free Energy =       0.00000000 hartree =       0.00000000 kcal/mol
 Total                         =      -0.73608228 hartree =    -461.89860224 kcal/mol
 --------------------------------------------------
 SCF Energy (H0 + V/2)                       =   -1721.99289195 
 Solute Internal Energy (H0)                 =   -1721.25680967 
 Total Free Energy (H0 + V/2 + non-elec)     =   -1721.99289195 hartree
                                             = -1080566.84869084 kcal/mol
***********************************************************

 SCF   energy in the final basis set =    -1721.9928919461
 Total energy in the final basis set =    -1721.9928919461
 
 --------------------------------------------------------------
 
                    Orbital Energies (a.u.)
 --------------------------------------------------------------
 
 Alpha MOs
 -- Occupied --
******** -30.3068 -26.1583 -26.1574 -26.1571 -19.2797 -19.2792 -19.2786
-19.2759 -19.2752 -19.2725  -3.7927  -2.5676  -2.5656  -2.5650  -1.1533
 -1.1381  -1.1369  -1.1355  -1.1329  -1.1321  -0.6611  -0.6547  -0.6460
 -0.6416  -0.6388  -0.6338  -0.6298  -0.6189  -0.6052  -0.5878  -0.5676
 -0.5663  -0.5548  -0.5438  -0.5388  -0.4859  -0.4829  -0.4723  -0.4561
 -0.4458  -0.4426  -0.3927  -0.3918
 -- Virtual --
 -0.0706  -0.0206  -0.0175  -0.0042   0.0491   0.0549   0.0671   0.0676
  0.0825   0.0930   0.0935   0.1119   0.1210   0.1351   0.1566   0.1631
  0.1972   0.2136   0.2266   0.2356   0.2464   0.2581   0.2607   0.3214
  0.3309   0.4806   0.4998   0.5079   0.5288   0.5329   0.5456   0.5560
  0.5687   0.5790   0.6113   0.6120   0.6281   0.6941   0.7006   0.7115
  0.7136   0.8254   0.8582   0.8683   0.9232   0.9307   0.9408   0.9477
  0.9927   0.9986   1.0055   1.0182   1.0303   1.0523   1.0614   1.0673
  1.0706   1.0870   1.1008   1.1241   1.1409   1.1939   1.2039   1.2133
  1.2305   1.2356   1.2450   1.2974   1.3184   1.3458   1.3608   1.3914
  1.4051   1.5056   1.5532   1.5720   1.6028   1.6351   1.6438   1.6483
  1.6730   1.6787   1.7126   1.7392   1.7583   1.7937   1.8062   1.8303
  1.9672   1.9789   1.9802   1.9855   1.9909   1.9954   1.9996   2.0167
  2.0296   2.0333   2.0480   2.0577   2.0838   2.0967   2.1228   2.3324
  2.3979   2.4354   2.6053   2.6460   2.6826   2.7052   2.7379   2.7476
  2.7749   2.8070   2.8091   2.8423   2.8532   2.9214   2.9327   2.9475
  2.9617   2.9749   2.9778   2.9792   2.9859   2.9893   2.9935   3.0134
  3.2924   3.3186   3.3213   3.3513   3.3626   3.3681   3.4089   3.4378
  3.4661   3.6249   3.6447   3.6776   3.7075   3.7151   3.7316
 
 Beta MOs
 -- Occupied --
******** -30.2103 -26.0776 -26.0771 -26.0770 -19.2761 -19.2755 -19.2749
-19.2723 -19.2714 -19.2688  -3.5689  -2.3311  -2.3304  -2.3299  -1.1452
 -1.1298  -1.1287  -1.1272  -1.1242  -1.1234  -0.6458  -0.6397  -0.6357
 -0.6299  -0.6255  -0.6148  -0.5905  -0.5617  -0.5590  -0.5522  -0.5344
 -0.5300  -0.4721  -0.4608  -0.4582  -0.4500  -0.4328  -0.4304
 -- Virtual --
 -0.2394  -0.2377  -0.2345  -0.1751  -0.1733  -0.0679  -0.0190  -0.0159
 -0.0024   0.0522   0.0579   0.0689   0.0700   0.0854   0.0960   0.0970
  0.1153   0.1266   0.1462   0.1593   0.1657   0.2163   0.2263   0.2389
  0.2473   0.2598   0.2729   0.2771   0.3229   0.3325   0.4826   0.5052
  0.5160   0.5450   0.5489   0.5566   0.5616   0.5791   0.5880   0.6161
  0.6184   0.6368   0.7086   0.7247   0.7321   0.7341   0.8325   0.8645
  0.8736   0.9301   0.9373   0.9496   0.9525   0.9999   1.0067   1.0146
  1.0260   1.0359   1.0596   1.0660   1.0725   1.0791   1.0925   1.1098
  1.1340   1.1568   1.2055   1.2180   1.2488   1.2581   1.2644   1.2789
  1.3098   1.3482   1.3719   1.3805   1.4188   1.4304   1.5167   1.5562
  1.5762   1.6066   1.6438   1.6500   1.6611   1.6905   1.6981   1.7394
  1.7632   1.7770   1.8055   1.8165   1.8440   1.9789   1.9825   1.9833
  1.9891   1.9936   1.9986   2.0044   2.0256   2.0363   2.0402   2.0537
  2.0652   2.0937   2.1127   2.1396   2.3430   2.4304   2.4673   2.6384
  2.6692   2.7165   2.7302   2.7670   2.7972   2.8179   2.8205   2.8550
  2.8644   2.8985   2.9538   2.9652   2.9669   2.9792   2.9846   2.9885
  3.0031   3.0127   3.0670   3.0785   3.0814   3.3178   3.3539   3.3584
  3.3659   3.3711   3.3872   3.4950   3.5133   3.5281   3.6308   3.6490
  3.6835   3.7127   3.7197   3.7369
 --------------------------------------------------------------
 
          Ground-State Mulliken Net Atomic Charges

     Atom                 Charge (a.u.)    Spin (a.u.)
  --------------------------------------------------------
      1 O                    -0.181448       0.103500
      2 O                    -0.180460       0.106158
      3 Fe                    0.724337       4.322516
      4 O                    -0.193658       0.105905
      5 O                    -0.188719       0.100630
      6 O                    -0.181239       0.100357
      7 O                    -0.184594       0.104669
      8 H                     0.285749       0.003970
      9 H                     0.278340       0.004556
     10 H                     0.288428       0.005209
     11 H                     0.284078       0.005745
     12 H                     0.282920       0.004515
     13 H                     0.275235       0.004868
     14 H                     0.278862       0.004855
     15 H                     0.284609       0.004616
     16 H                     0.278705       0.004231
     17 H                     0.283714       0.004739
     18 H                     0.279852       0.004436
     19 H                     0.285291       0.004523
  --------------------------------------------------------
  Sum of atomic charges =     3.000000
  Sum of spin   charges =     5.000000

 -----------------------------------------------------------------
                    Cartesian Multipole Moments
 -----------------------------------------------------------------
    Charge (ESU x 10^10)
                14.4096
    Dipole Moment (Debye)
         X       9.4123      Y      -7.6331      Z      -9.3923
       Tot      15.3320
    Quadrupole Moments (Debye-Ang)
        XX     -11.3010     XY     -10.0886     YY      -5.3019
        XZ     -14.0116     YZ       1.8320     ZZ     -13.8971
    Octopole Moments (Debye-Ang^2)
       XXX     -16.5788    XXY       3.5994    XYY       8.8319
       YYY      17.5558    XXZ     -18.4836    XYZ      -1.6417
       YYZ     -13.6120    XZZ      -0.7225    YZZ     -14.6901
       ZZZ      -3.5103
    Hexadecapole Moments (Debye-Ang^3)
      XXXX    -233.7297   XXXY     -18.6848   XXYY     -28.1643
      XYYY     -10.9279   YYYY    -193.0271   XXXZ     -39.7106
      XXYZ       4.3752   XYYZ      -0.1504   YYYZ      23.2397
      XXZZ     -58.8600   XYZZ      -5.3889   YYZZ     -41.8707
      XZZZ     -46.0827   YZZZ      -7.7734   ZZZZ    -179.6504
 -----------------------------------------------------------------
 Calculating analytic gradient of the SCF energy
 Gradient of SCF Energy
            1           2           3           4           5           6
    1   0.0338748  -0.0898424   0.0169760   0.0134708  -0.0548752  -0.2119482
    2   0.0590007  -0.1178386  -0.0127615  -0.2278722   0.1881252   0.0493527
    3   0.2373034   0.1904589  -0.0516181   0.0038007   0.1457896   0.1265273
            7           8           9          10          11          12
    1   0.0709393  -0.1350354  -0.0844541  -0.0019257   0.0550394   0.0494037
    2   0.2064887   0.0374811   0.0983904   0.0990894   0.0072505  -0.1590454
    3  -0.0492248  -0.0945544  -0.1126015  -0.1389451  -0.1722524  -0.0760157
           13          14          15          16          17          18
    1   0.0902204  -0.1523142  -0.0206292   0.1565086   0.1450607   0.1159297
    2  -0.1367032  -0.0495596  -0.1728879  -0.0090059   0.1096664  -0.0719743
    3   0.0145442   0.0121923   0.0327567  -0.0673936  -0.0168389  -0.1151639
           19
    1   0.0036009
    2   0.1028036
    3   0.1312353
 Max gradient component =       2.373E-01
 RMS gradient           =       1.114E-01
 Computing fast CPCM-SWIG gradient
 Updating gradient with PCM contributions...
 -- total gradient after adding PCM contribution --
---------------------------------------------------
  Atom         X              Y              Z     
---------------------------------------------------
   1       0.006422       0.013419       0.026812
   2      -0.011809      -0.019755       0.019338
   3       0.003490      -0.003457      -0.013469
   4       0.008565      -0.026110      -0.002888
   5      -0.011534       0.022009       0.012443
   6      -0.021501       0.001426       0.019125
   7       0.009108       0.021119      -0.014787
   8       0.000378       0.006552      -0.007520
   9      -0.003185      -0.003391      -0.009862
  10       0.007084       0.006013      -0.003282
  11      -0.005969      -0.001128      -0.008216
  12       0.006611      -0.007217       0.004724
  13       0.000407      -0.006800      -0.006861
  14      -0.005295      -0.003982      -0.006185
  15      -0.008211      -0.006341      -0.003083
  16       0.002104      -0.004278      -0.009477
  17       0.010242       0.000343       0.005929
  18       0.004514       0.005846      -0.007176
  19       0.008578       0.005734       0.004436
---------------------------------------------------
 Number of fixed atoms: 0
 Gradient time:  CPU 387.68 s  wall 21.15 s

     Step 1	:
        Energy is -1721.9928919461
                            Maximum         Tolerance       Converged?
         Gradient           5.25680531e-02	3.00000000e-04	false
         Displacement       2.16658696e-01	1.20000000e-03	false
         Energy change      3.72604606e-02	1.00000000e-06	false


	OPTIMIZATION CYCLE:	2

 Scaling Magnitude of Eigenvalues
 	Minimum: -25.00000000	 Maximum: 25.00000000
 51 Hessian Eigenvalues to form next step
   0.09797802   0.10000151   0.10000319   0.10000522   0.10000875
   0.10001566   0.10060267   0.11242331   0.11356710   0.11391580
   0.11784733   0.12185805   0.14722336   0.14796886   0.14985749
   0.15363518   0.16529079   0.17574510   0.20213996   0.20730986
   0.20841074   0.21016819   0.22038036   0.22274043   0.22842007
   0.22955068   0.23134832   0.23625380   0.26367442   0.34824222
   0.37019568   0.37514022   0.38055136   0.39416280   0.45022893
   0.48202889   0.49907653   0.50000000   0.50000305   0.50004248
   0.50814382   0.51850326   0.52171205   0.52332343   0.52421917
   0.52494532   0.52859751   0.53461661   0.53888224   0.54160207
   0.54404321

 Minimum Search taking a RFO step
 Searching for Lambda that minimizes along all modes
	Value of Lambda   -0.03387867
	Norm  of Stepsize  0.43342110
	RMS   of Stepsize  0.06069109

	Performing Iterative Coordinate Back-Transformation

	  Starting from Previous Position

	  iter:	0	rms: 1.1010267206e-01	maxdev: 2.4004959961e-01
	  iter:	1	rms: 3.0216097904e-03	maxdev: 7.7177675731e-03
	  iter:	2	rms: 3.1801520706e-06	maxdev: 7.7279273904e-06
	  iter:	3	rms: 1.2216666530e-11	maxdev: 4.9241422932e-11	 Success!

	Finished Iterative Coordinate Back-Transformation
 Adding empirical dispersion correction 
 ----------------------------------------------------------------
 Doing -D3(BJ) with
 s6  =   1.00000e+00
 s8  =   1.98890e+00
 a1  =   3.98100e-01
 a2  =   4.42110e+00
 -D3 energy without 3body term =     -2.6602188371e-02 hartrees
 ----------------------------------------------------------------
             Standard Nuclear Orientation (Angstroms)
    I     Atom           X                Y                Z
 ----------------------------------------------------------------
    1      O      -0.2593048803    -2.2553705416    -0.6600011364
    2      O       1.2863393206     1.4104132107     0.1460781034
    3      Fe      0.5167107247    -0.4291162264    -0.2228674929
    4      O      -1.3612123887     0.3110138633    -0.2230414598
    5      O       2.4082321908    -1.1731477627    -0.1980333306
    6      O       0.6158534145    -0.0550329390    -2.2244380193
    7      O       0.4002762666    -0.8310888939     1.7529612201
    8      H      -1.1059441231    -2.2041357670    -1.1604871872
    9      H       0.9003317432     2.1556680905    -0.3675388967
   10      H      -1.5699689656     0.8752484573    -1.0029292559
   11      H       2.8898666833    -1.1723695660    -1.0555058443
   12      H       0.7970004036    -0.8171118413    -2.8187539212
   13      H       0.9269984773    -1.6084962102     2.0486079097
   14      H      -0.4988572450    -1.1192531182     2.0346491779
   15      H       2.4866313965    -2.1265834697     0.0365734305
   16      H       2.2358773568     1.5111598661    -0.0933153068
   17      H       1.3202486475     0.5717597280    -2.5074783280
   18      H       0.2640356046    -2.8351790999    -1.2586184901
   19      H      -1.5730837272     0.9164423199     0.5258995275
 ----------------------------------------------------------------
 Nuclear Repulsion Energy =         691.93680627 hartrees
 There are       44 alpha and       39 beta electrons
No default van der Waals radius is available for Z = 26
	Found R = 2.4400 A in the $van_der_waals section
 Discretize the solute cavity surface with Lebedev spheres
	Using 110 Lebedev grid points for each H atom
	Using 194 Lebedev grid points for other atoms
	Atomic van der Waals radii (Bondi set) will be scaled by 1.20
 Using smooth SwiG surface discretization
 Remove points where switching function is < 1.0e-08
 Keep 1220 surface tesserae and discard 1458 interior tesserae
 Molecular Surface Area = 164.685 Angst**2

 Applying Cartesian multipole field
    Component          Value
    ---------          -----
     (2,0,0)        1.00000E-11
     (0,2,0)        2.00000E-11
     (0,0,2)       -3.00000E-11
 Nucleus-field energy     = 1.5890289818e-09 hartrees
 Read the previous MOs as SCF guess

 -----------------------------------------------------------------------
  General SCF calculation program by
  Eric Jon Sundstrom, Paul Horn, Yuezhi Mao, Dmitri Zuev, Alec White,
  David Stuck, Shaama M.S., Shane Yost, Joonho Lee, David Small,
  Daniel Levine, Susi Lehtola, Hugh Burton, Evgeny Epifanovsky,
  Bang C. Huynh
 -----------------------------------------------------------------------
 Requested basis set is non-standard
 There are 87 shells and 187 basis functions
 Exchange:     0.2000 Hartree-Fock + 0.0800 Slater + 0.7200 B88
 Correlation:  0.1900 VWN1RPA + 0.8100 LYP
 Using SG-1 standard quadrature grid
 Dispersion:   Grimme D3
 A cutoff of  1.0D-12 yielded   3800 shell pairs
 There are     17404 function pairs (     19726 Cartesian)
 Smallest overlap matrix eigenvalue = 7.82E-04
 A unrestricted SCF calculation will be
 performed using DIIS
 SCF converges when DIIS error is below 1.0e-08
 ---------------------------------------
  Cycle       Energy         DIIS error
 ---------------------------------------
    1   -1721.3157236626      1.40e-03  
    2   -1722.0078096698      6.81e-04  
    3   -1722.0145528308      3.85e-04  
    4   -1722.0155588982      2.77e-04  
    5   -1722.0163140807      1.28e-04  
    6   -1722.0164835989      3.04e-05  
    7   -1722.0164947414      9.64e-06  
    8   -1722.0164959843      2.59e-06  
    9   -1722.0164961086      6.34e-07  
   10   -1722.0164961219      2.62e-07  
   11   -1722.0164961231      2.07e-07  
   12   -1722.0164961237      2.08e-08  
   13   -1722.0164961238      9.02e-09  Convergence criterion met
 ---------------------------------------
 SCF time:   CPU 1774.55s  wall 100.00s 
<S^2> =          8.754227813

************** Final PCM Free Energy Summary **************
 G_electrostatic  =      -0.71911688 hartree =    -451.25265315 kcal/mol
 G_cavitation     =       0.00000000 hartree =       0.00000000 kcal/mol
 G_dispersion     =       0.00000000 hartree =       0.00000000 kcal/mol
 G_repulsion      =       0.00000000 hartree =       0.00000000 kcal/mol
 --------------------------------------------------
 Non-electrostatic Free Energy =       0.00000000 hartree =       0.00000000 kcal/mol
 Total                         =      -0.71911688 hartree =    -451.25265315 kcal/mol
 --------------------------------------------------
 SCF Energy (H0 + V/2)                       =   -1722.01649612 
 Solute Internal Energy (H0)                 =   -1721.29737924 
 Total Free Energy (H0 + V/2 + non-elec)     =   -1722.01649612 hartree
                                             = -1080581.66053591 kcal/mol
***********************************************************

 SCF   energy in the final basis set =    -1722.0164961238
 Total energy in the final basis set =    -1722.0164961238
 
 --------------------------------------------------------------
 
                    Orbital Energies (a.u.)
 --------------------------------------------------------------
 
 Alpha MOs
 -- Occupied --
******** -30.3214 -26.1732 -26.1722 -26.1719 -19.2736 -19.2725 -19.2713
-19.2701 -19.2697 -19.2694  -3.8031  -2.5777  -2.5753  -2.5747  -1.1415
 -1.1305  -1.1287  -1.1278  -1.1264  -1.1253  -0.6478  -0.6441  -0.6382
 -0.6360  -0.6325  -0.6230  -0.6203  -0.6107  -0.6013  -0.5865  -0.5737
 -0.5725  -0.5542  -0.5436  -0.5414  -0.4807  -0.4794  -0.4599  -0.4469
 -0.4375  -0.4351  -0.4036  -0.4030
 -- Virtual --
 -0.0649  -0.0159  -0.0140  -0.0026   0.0530   0.0564   0.0734   0.0769
  0.0859   0.0936   0.0987   0.1055   0.1090   0.1324   0.1640   0.1749
  0.1963   0.2040   0.2097   0.2209   0.2370   0.2458   0.2478   0.3359
  0.3441   0.4947   0.5190   0.5233   0.5359   0.5465   0.5575   0.5736
  0.5776   0.5922   0.6111   0.6138   0.6359   0.6871   0.6890   0.6968
  0.7028   0.8327   0.8651   0.8806   0.9270   0.9383   0.9508   0.9613
  0.9859   0.9969   1.0005   1.0099   1.0178   1.0469   1.0550   1.0670
  1.0693   1.0810   1.1075   1.1191   1.1395   1.1571   1.1630   1.1943
  1.2137   1.2190   1.2330   1.2797   1.3197   1.3331   1.3411   1.3696
  1.3890   1.5102   1.5467   1.5800   1.6038   1.6187   1.6293   1.6443
  1.6530   1.6793   1.6865   1.7001   1.7256   1.7328   1.7680   1.8073
  1.9476   1.9864   1.9980   1.9990   2.0061   2.0084   2.0144   2.0192
  2.0360   2.0467   2.0608   2.0648   2.0817   2.0829   2.1033   2.2682
  2.3184   2.3527   2.6471   2.6726   2.7017   2.7146   2.7389   2.7469
  2.7754   2.8021   2.8062   2.8246   2.8283   2.8950   2.8968   2.9166
  2.9262   2.9443   2.9798   2.9836   2.9868   2.9885   2.9935   3.0003
  3.2731   3.2800   3.2837   3.3383   3.3483   3.3598   3.3817   3.4056
  3.4383   3.6385   3.6742   3.6936   3.7201   3.7351   3.7486
 
 Beta MOs
 -- Occupied --
******** -30.2247 -26.0923 -26.0918 -26.0917 -19.2700 -19.2690 -19.2677
-19.2664 -19.2661 -19.2659  -3.5786  -2.3400  -2.3392  -2.3389  -1.1338
 -1.1226  -1.1208  -1.1198  -1.1183  -1.1171  -0.6320  -0.6269  -0.6222
 -0.6188  -0.6150  -0.6068  -0.5875  -0.5554  -0.5541  -0.5475  -0.5326
 -0.5311  -0.4564  -0.4492  -0.4488  -0.4391  -0.4243  -0.4216
 -- Virtual --
 -0.2475  -0.2463  -0.2435  -0.1948  -0.1937  -0.0614  -0.0142  -0.0122
 -0.0007   0.0561   0.0595   0.0754   0.0791   0.0889   0.0971   0.1013
  0.1123   0.1263   0.1390   0.1672   0.1779   0.2078   0.2137   0.2219
  0.2337   0.2507   0.2609   0.2630   0.3372   0.3455   0.4963   0.5254
  0.5325   0.5563   0.5637   0.5701   0.5804   0.5900   0.5985   0.6165
  0.6185   0.6438   0.7023   0.7079   0.7153   0.7206   0.8404   0.8710
  0.8866   0.9335   0.9462   0.9579   0.9659   0.9911   1.0029   1.0126
  1.0152   1.0228   1.0520   1.0620   1.0731   1.0760   1.0868   1.1168
  1.1358   1.1600   1.1835   1.2062   1.2087   1.2286   1.2419   1.2489
  1.2898   1.3470   1.3475   1.3697   1.4096   1.4216   1.5205   1.5509
  1.5882   1.6104   1.6282   1.6400   1.6519   1.6593   1.6986   1.7017
  1.7228   1.7394   1.7506   1.7820   1.8236   1.9638   1.9935   2.0008
  2.0026   2.0102   2.0126   2.0170   2.0259   2.0434   2.0520   2.0658
  2.0711   2.0903   2.0919   2.1130   2.2771   2.3554   2.3899   2.6792
  2.6977   2.7302   2.7477   2.7756   2.7985   2.8114   2.8130   2.8356
  2.8373   2.8929   2.9439   2.9495   2.9706   2.9832   2.9865   2.9920
  2.9963   2.9985   3.0230   3.0328   3.0353   3.3227   3.3544   3.3607
  3.3680   3.3718   3.3917   3.4059   3.4360   3.4596   3.6442   3.6780
  3.6989   3.7250   3.7395   3.7528
 --------------------------------------------------------------
 
          Ground-State Mulliken Net Atomic Charges

     Atom                 Charge (a.u.)    Spin (a.u.)
  --------------------------------------------------------
      1 O                    -0.175944       0.102709
      2 O                    -0.176281       0.104212
      3 Fe                    0.781618       4.340812
      4 O                    -0.187643       0.103191
      5 O                    -0.183718       0.099238
      6 O                    -0.174985       0.100536
      7 O                    -0.181251       0.100774
      8 H                     0.276470       0.003372
      9 H                     0.272187       0.003954
     10 H                     0.281902       0.004498
     11 H                     0.277241       0.004861
     12 H                     0.273538       0.003965
     13 H                     0.270969       0.004276
     14 H                     0.273425       0.004091
     15 H                     0.275514       0.004046
     16 H                     0.271510       0.003583
     17 H                     0.273979       0.003976
     18 H                     0.273071       0.003822
     19 H                     0.278397       0.004083
  --------------------------------------------------------
  Sum of atomic charges =     3.000000
  Sum of spin   charges =     5.000000

 -----------------------------------------------------------------
                    Cartesian Multipole Moments
 -----------------------------------------------------------------
    Charge (ESU x 10^10)
                14.4096
    Dipole Moment (Debye)
         X       9.2603      Y      -7.5451      Z      -9.1331
       Tot      15.0364
    Quadrupole Moments (Debye-Ang)
        XX      -8.5497     XY      -9.7934     YY      -2.9634
        XZ     -13.3904     YZ       1.4241     ZZ     -11.0967
    Octopole Moments (Debye-Ang^2)
       XXX     -12.5277    XXY       3.1427    XYY      10.5035
       YYY      15.6917    XXZ     -18.1684    XYZ      -3.0011
       YYZ     -14.1697    XZZ      -0.6957    YZZ     -17.1525
       ZZZ      -6.3744
    Hexadecapole Moments (Debye-Ang^3)
      XXXX    -217.1533   XXXY     -31.5001   XXYY     -20.2807
      XYYY      -5.0430   YYYY    -179.8319   XXXZ     -41.7981
      XXYZ       4.7851   XYYZ       2.2874   YYYZ      28.9274
      XXZZ     -64.2796   XYZZ      -3.8964   YYZZ     -40.9614
      XZZZ     -51.6923   YZZZ     -14.1202   ZZZZ    -156.2980
 -----------------------------------------------------------------
 Calculating analytic gradient of the SCF energy
 Gradient of SCF Energy
            1           2           3           4           5           6
    1   0.0378726  -0.0895911   0.0140716   0.0247406  -0.0618116  -0.1884222
    2   0.0615589  -0.1168735  -0.0109088  -0.2104307   0.1787097   0.0393391
    3   0.2167252   0.1696695  -0.0401082   0.0048268   0.1345128   0.1320876
            7           8           9          10          11          12
    1   0.0686967  -0.1314520  -0.0643942  -0.0189976   0.0715517   0.0424037
    2   0.1934962   0.0199985   0.1122357   0.0969495  -0.0046131  -0.1387184
    3  -0.0527550  -0.0908641  -0.0991961  -0.1301744  -0.1549604  -0.0944122
           13          14          15          16          17          18
    1   0.0793537  -0.1414497   0.0004469   0.1504514   0.1309038   0.0950837
    2  -0.1315205  -0.0516173  -0.1651150   0.0083211   0.1043243  -0.0866641
    3   0.0326563   0.0292796   0.0282618  -0.0577767  -0.0391996  -0.1103332
           19
    1  -0.0194580
    2   0.1015285
    3   0.1217604
 Max gradient component =       2.167E-01
 RMS gradient           =       1.049E-01
 Computing fast CPCM-SWIG gradient
 Updating gradient with PCM contributions...
 -- total gradient after adding PCM contribution --
---------------------------------------------------
  Atom         X              Y              Z     
---------------------------------------------------
   1       0.002075       0.001637       0.018212
   2      -0.006356      -0.006469       0.016414
   3       0.000805      -0.001874      -0.006125
   4      -0.001989      -0.015719      -0.002495
   5      -0.000643       0.014215       0.009399
   6      -0.014765       0.002380       0.005447
   7       0.007069       0.015149      -0.002090
   8       0.003412       0.000534      -0.007138
   9       0.004640      -0.001400      -0.006314
  10       0.002860       0.005777       0.001380
  11      -0.002656      -0.006971      -0.001345
  12       0.007014       0.000338       0.000773
  13      -0.005129      -0.005215      -0.001937
  14       0.000136      -0.006154      -0.002110
  15      -0.001452      -0.002850      -0.007228
  16      -0.001824       0.002245      -0.008140
  17       0.005845      -0.004147       0.000046
  18      -0.002704       0.003026      -0.006272
  19       0.003660       0.005499      -0.000478
---------------------------------------------------
 Number of fixed atoms: 0
 Gradient time:  CPU 391.42 s  wall 21.45 s

     Step 2	:
        Energy is -1722.0164961238
                            Maximum         Tolerance       Converged?
         Gradient           1.10308414e-02	3.00000000e-04	false
         Displacement       2.48281652e-01	1.20000000e-03	false
         Energy change      2.36041777e-02	1.00000000e-06	false


	OPTIMIZATION CYCLE:	3

 Scaling Magnitude of Eigenvalues
 	Minimum: -25.00000000	 Maximum: 25.00000000
 51 Hessian Eigenvalues to form next step
   0.08069965   0.10000162   0.10000319   0.10000484   0.10000867
   0.10001445   0.10012350   0.11243718   0.11356756   0.11389882
   0.11770323   0.12176135   0.14742231   0.14811462   0.14986800
   0.15360696   0.16520784   0.19490092   0.20219074   0.20808923
   0.20839820   0.21016878   0.22056341   0.22249316   0.22842000
   0.22952744   0.23137273   0.23626406   0.26373197   0.33973540
   0.36811537   0.37460744   0.38096679   0.39418731   0.45021851
   0.48205051   0.49908506   0.50000031   0.50000346   0.50008154
   0.50818916   0.51838422   0.52163638   0.52333267   0.52421865
   0.52494989   0.52864995   0.53466887   0.53894600   0.54172070
   0.54404138

 Minimum Search taking a RFO step
 Searching for Lambda that minimizes along all modes
	Value of Lambda   -0.00578669
	Norm  of Stepsize  0.25230974
	RMS   of Stepsize  0.03533043

	Performing Iterative Coordinate Back-Transformation

	  Starting from Previous Position

	  iter:	0	rms: 4.4964216384e-02	maxdev: 1.0707567431e-01
	  iter:	1	rms: 6.9169383702e-04	maxdev: 1.8497031184e-03
	  iter:	2	rms: 1.8596021494e-07	maxdev: 6.1985448798e-07	 Success!

	Finished Iterative Coordinate Back-Transformation
 Adding empirical dispersion correction 
 ----------------------------------------------------------------
 Doing -D3(BJ) with
 s6  =   1.00000e+00
 s8  =   1.98890e+00
 a1  =   3.98100e-01
 a2  =   4.42110e+00
 -D3 energy without 3body term =     -2.6101175025e-02 hartrees
 ----------------------------------------------------------------
             Standard Nuclear Orientation (Angstroms)
    I     Atom           X                Y                Z
 ----------------------------------------------------------------
    1      O      -0.2725834695    -2.2668369766    -0.6861896185
    2      O       1.3132997605     1.4250045495     0.1387823783
    3      Fe      0.5212778212    -0.4293446939    -0.2249983745
    4      O      -1.3714470226     0.3234822244    -0.2273688800
    5      O       2.4283194861    -1.1886148760    -0.1884366782
    6      O       0.6179501920    -0.0498816535    -2.2475035747
    7      O       0.3994793507    -0.8441596911     1.7694554407
    8      H      -1.1277019242    -2.2277861219    -1.1699533168
    9      H       0.9392646288     2.1916619577    -0.3491887762
   10      H      -1.6066196997     0.8678695904    -1.0118434397
   11      H       2.9344097148    -1.1819098090    -1.0305372914
   12      H       0.7687989509    -0.7984202156    -2.8647159822
   13      H       0.9296138085    -1.6087328588     2.0879879744
   14      H      -0.4939562990    -1.1172657870     2.0771077306
   15      H       2.5283051740    -2.1340348325     0.0617861990
   16      H       2.2672570980     1.5306761504    -0.0735173539
   17      H       1.2957217501     0.5906597543    -2.5555803774
   18      H       0.2375494662    -2.8696158710    -1.2707099903
   19      H      -1.6289078870     0.9120692602     0.5171846307
 ----------------------------------------------------------------
 Nuclear Repulsion Energy =         685.03746947 hartrees
 There are       44 alpha and       39 beta electrons
No default van der Waals radius is available for Z = 26
	Found R = 2.4400 A in the $van_der_waals section
 Discretize the solute cavity surface with Lebedev spheres
	Using 110 Lebedev grid points for each H atom
	Using 194 Lebedev grid points for other atoms
	Atomic van der Waals radii (Bondi set) will be scaled by 1.20
 Using smooth SwiG surface discretization
 Remove points where switching function is < 1.0e-08
 Keep 1238 surface tesserae and discard 1440 interior tesserae
 Molecular Surface Area = 166.918 Angst**2

 Applying Cartesian multipole field
    Component          Value
    ---------          -----
     (2,0,0)        1.00000E-11
     (0,2,0)        2.00000E-11
     (0,0,2)       -3.00000E-11
 Nucleus-field energy     = 1.5562013742e-09 hartrees
 Read the previous MOs as SCF guess

 -----------------------------------------------------------------------
  General SCF calculation program by
  Eric Jon Sundstrom, Paul Horn, Yuezhi Mao, Dmitri Zuev, Alec White,
  David Stuck, Shaama M.S., Shane Yost, Joonho Lee, David Small,
  Daniel Levine, Susi Lehtola, Hugh Burton, Evgeny Epifanovsky,
  Bang C. Huynh
 -----------------------------------------------------------------------
 Requested basis set is non-standard
 There are 87 shells and 187 basis functions
 Exchange:     0.2000 Hartree-Fock + 0.0800 Slater + 0.7200 B88
 Correlation:  0.1900 VWN1RPA + 0.8100 LYP
 Using SG-1 standard quadrature grid
 Dispersion:   Grimme D3
 A cutoff of  1.0D-12 yielded   3798 shell pairs
 There are     17386 function pairs (     19708 Cartesian)
 Smallest overlap matrix eigenvalue = 7.95E-04
 A unrestricted SCF calculation will be
 performed using DIIS
 SCF converges when DIIS error is below 1.0e-08
 ---------------------------------------
  Cycle       Energy         DIIS error
 ---------------------------------------
    1   -1721.3091181900      6.66e-04  
    2   -1722.0141120873      5.72e-04  
    3   -1722.0192532112      3.11e-04  
    4   -1722.0201344555      2.01e-04  
    5   -1722.0206906334      8.90e-05  
    6   -1722.0207952561      2.72e-05  
    7   -1722.0208055284      7.16e-06  
    8   -1722.0208062493      2.38e-06  
    9   -1722.0208063532      6.04e-07  
   10   -1722.0208063652      2.76e-07  
   11   -1722.0208063665      2.01e-07  
   12   -1722.0208063671      1.63e-08  
   13   -1722.0208063672      8.37e-09  Convergence criterion met
 ---------------------------------------
 SCF time:   CPU 1844.79s  wall 104.00s 
<S^2> =          8.754369172

************** Final PCM Free Energy Summary **************
 G_electrostatic  =      -0.71183865 hartree =    -446.68549423 kcal/mol
 G_cavitation     =       0.00000000 hartree =       0.00000000 kcal/mol
 G_dispersion     =       0.00000000 hartree =       0.00000000 kcal/mol
 G_repulsion      =       0.00000000 hartree =       0.00000000 kcal/mol
 --------------------------------------------------
 Non-electrostatic Free Energy =       0.00000000 hartree =       0.00000000 kcal/mol
 Total                         =      -0.71183865 hartree =    -446.68549423 kcal/mol
 --------------------------------------------------
 SCF Energy (H0 + V/2)                       =   -1722.02080637 
 Solute Internal Energy (H0)                 =   -1721.30896772 
 Total Free Energy (H0 + V/2 + non-elec)     =   -1722.02080637 hartree
                                             = -1080584.36525446 kcal/mol
***********************************************************

 SCF   energy in the final basis set =    -1722.0208063672
 Total energy in the final basis set =    -1722.0208063672
 
 --------------------------------------------------------------
 
                    Orbital Energies (a.u.)
 --------------------------------------------------------------
 
 Alpha MOs
 -- Occupied --
******** -30.3264 -26.1784 -26.1773 -26.1770 -19.2714 -19.2702 -19.2681
-19.2679 -19.2678 -19.2671  -3.8068  -2.5814  -2.5788  -2.5781  -1.1371
 -1.1274  -1.1254  -1.1244  -1.1236  -1.1218  -0.6446  -0.6421  -0.6369
 -0.6344  -0.6294  -0.6208  -0.6182  -0.6090  -0.5990  -0.5868  -0.5765
 -0.5752  -0.5525  -0.5421  -0.5406  -0.4779  -0.4772  -0.4544  -0.4428
 -0.4341  -0.4318  -0.4068  -0.4060
 -- Virtual --
 -0.0635  -0.0142  -0.0127  -0.0024   0.0539   0.0568   0.0756   0.0798
  0.0883   0.0932   0.0967   0.1012   0.1083   0.1333   0.1660   0.1783
  0.1908   0.2035   0.2085   0.2159   0.2329   0.2404   0.2439   0.3419
  0.3493   0.5016   0.5255   0.5292   0.5379   0.5525   0.5613   0.5780
  0.5816   0.5977   0.6115   0.6160   0.6415   0.6830   0.6837   0.6918
  0.7007   0.8334   0.8659   0.8824   0.9256   0.9422   0.9532   0.9652
  0.9821   0.9980   0.9997   1.0050   1.0179   1.0411   1.0533   1.0694
  1.0711   1.0803   1.1079   1.1205   1.1324   1.1497   1.1555   1.1927
  1.2131   1.2160   1.2312   1.2808   1.3196   1.3311   1.3399   1.3638
  1.3856   1.5119   1.5397   1.5766   1.5997   1.6106   1.6207   1.6388
  1.6495   1.6720   1.6802   1.6888   1.7102   1.7223   1.7635   1.8043
  1.9381   1.9795   2.0014   2.0054   2.0083   2.0130   2.0200   2.0233
  2.0356   2.0496   2.0632   2.0675   2.0797   2.0856   2.1029   2.2447
  2.2832   2.3172   2.6623   2.6823   2.7085   2.7200   2.7379   2.7513
  2.7780   2.8026   2.8078   2.8197   2.8220   2.8800   2.8865   2.9026
  2.9142   2.9281   2.9815   2.9845   2.9887   2.9904   2.9971   3.0022
  3.2492   3.2543   3.2609   3.3350   3.3488   3.3606   3.3833   3.4107
  3.4356   3.6398   3.6822   3.6973   3.7208   3.7383   3.7523
 
 Beta MOs
 -- Occupied --
******** -30.2297 -26.0974 -26.0969 -26.0967 -19.2678 -19.2667 -19.2646
-19.2643 -19.2643 -19.2635  -3.5822  -2.3433  -2.3425  -2.3422  -1.1294
 -1.1196  -1.1177  -1.1166  -1.1156  -1.1138  -0.6289  -0.6240  -0.6193
 -0.6164  -0.6128  -0.6053  -0.5854  -0.5522  -0.5508  -0.5444  -0.5309
 -0.5300  -0.4502  -0.4452  -0.4441  -0.4343  -0.4205  -0.4181
 -- Virtual --
 -0.2506  -0.2495  -0.2468  -0.2017  -0.2008  -0.0595  -0.0124  -0.0109
 -0.0005   0.0571   0.0599   0.0776   0.0821   0.0911   0.0971   0.1036
  0.1116   0.1217   0.1372   0.1692   0.1815   0.2028   0.2159   0.2161
  0.2288   0.2468   0.2551   0.2584   0.3433   0.3506   0.5032   0.5338
  0.5381   0.5589   0.5688   0.5745   0.5853   0.5939   0.6034   0.6166
  0.6203   0.6487   0.6986   0.7020   0.7103   0.7180   0.8411   0.8717
  0.8888   0.9322   0.9496   0.9602   0.9700   0.9873   1.0038   1.0085
  1.0121   1.0229   1.0464   1.0605   1.0767   1.0769   1.0869   1.1198
  1.1400   1.1646   1.1732   1.1897   1.2056   1.2250   1.2369   1.2487
  1.2901   1.3457   1.3477   1.3707   1.4044   1.4175   1.5202   1.5445
  1.5865   1.6081   1.6170   1.6317   1.6468   1.6559   1.6839   1.6981
  1.7094   1.7224   1.7418   1.7790   1.8209   1.9537   1.9899   2.0053
  2.0084   2.0132   2.0168   2.0232   2.0273   2.0426   2.0544   2.0684
  2.0732   2.0877   2.0934   2.1102   2.2531   2.3214   2.3559   2.6928
[...]
   0.00588399   0.00785160   0.01004187   0.01612058   0.01861187
   0.02295424   0.03726745   0.03955307   0.05185626   0.06342074
   0.06751176   0.07688374   0.09309310   0.10690219   0.11407440
   0.12830038   0.13602781   0.18325254   0.19191734   0.19510930
   0.22974842   0.25419117   0.28841793   0.30943513   0.34105503
   0.36727933   0.51531185   0.71524543   0.88044922   0.98328683
   1.09722973   1.13611313   1.16716369   1.17672423   1.27009961
   1.34050577   1.35809507   1.37947982   1.42010368   1.45104129
   1.50502223   1.55390040   1.56591902   1.85825025   25.00000000
   25.00000000

 Minimum Search taking a RFO step
 Searching for Lambda that minimizes along all modes
	Value of Lambda   -0.00000090
	Norm  of Stepsize  0.00689975
	RMS   of Stepsize  0.00091389
 Adding empirical dispersion correction 
 ----------------------------------------------------------------
 Doing -D3(BJ) with
 s6  =   1.00000
 s8  =   1.98890
 a1  =   0.39810
 a2  =   4.42110
 -D3 energy without 3body term =     -0.0256208949 hartrees
 ----------------------------------------------------------------
             Standard Nuclear Orientation (Angstroms)
    I     Atom           X                Y                Z
 ----------------------------------------------------------------
    1      O      -0.3466130659    -2.1925914954    -0.8644273393
    2      O       1.4677603424     1.2639657241     0.1008649389
    3      Fe      0.5606044802    -0.4640498322    -0.3817863026
    4      O      -1.2268976901     0.4548744225    -0.3686847759
    5      O       2.3476791388    -1.3854784087    -0.3973067502
    6      O       0.7635727078    -0.0342158728    -2.3344522872
    7      O       0.3529395523    -0.8971048385     1.5695017876
    8      H      -1.3044004943    -2.3148982770    -1.0115494480
    9      H       1.0325915588     2.1259241831     0.2483025742
   10      H      -1.6429598038     0.9218495534    -1.1188342800
   11      H       2.9344269082    -1.4826716099    -1.1720337285
   12      H       0.4574905910    -0.5933085035    -3.0746645109
   13      H       0.6661709097    -0.3472927124     2.3135599743
   14      H      -0.0643834120    -1.6966370739     1.9441239638
   15      H       2.7677276711    -1.8492578927     0.3523798596
   16      H       2.4229519667     1.3820991581     0.2669799857
   17      H       1.2208060367     0.7405898955    -2.7144235799
   18      H       0.0881917846    -3.0549430187    -1.0095007100
   19      H      -1.8176282823     0.5479666990     0.4037113283
 ----------------------------------------------------------------
 Nuclear Repulsion Energy =         692.02475963 hartrees
 There are       44 alpha and       39 beta electrons
No default van der Waals radius is available for Z = 26
	Found R = 2.4400 A in the $van_der_waals section
 Discretize the solute cavity surface with Lebedev spheres
	Using 110 Lebedev grid points for each H atom
	Using 194 Lebedev grid points for other atoms
	Atomic van der Waals radii (Bondi set) will be scaled by 1.20
 Using smooth SwiG surface discretization
 Remove points where switching function is < 1.0e-08
 Keep 1287 surface tesserae and discard 1391 interior tesserae
 Molecular Surface Area = 166.233 Angst**2

 Applying Cartesian multipole field
    Component          Value
    ---------          -----
     (2,0,0)        1.00000E-11
     (0,2,0)        2.00000E-11
     (0,0,2)       -3.00000E-11
 Nucleus-field energy     =     0.0000000009 hartrees
 Read the previous MOs as SCF guess

 -----------------------------------------------------------------------
  General SCF calculation program by
  Eric Jon Sundstrom, Paul Horn, Yuezhi Mao, Dmitri Zuev, Alec White,
  David Stuck, Shaama M.S., Shane Yost, Joonho Lee, David Small,
  Daniel Levine, Susi Lehtola, Hugh Burton, Evgeny Epifanovsky,
  Bang C. Huynh
 -----------------------------------------------------------------------
 Requested basis set is non-standard
 There are 87 shells and 187 basis functions
 Exchange:     0.2000 Hartree-Fock + 0.0800 Slater + 0.7200 B88
 Correlation:  0.1900 VWN1RPA + 0.8100 LYP
 Using SG-1 standard quadrature grid
 Dispersion:   Grimme D3
 A cutoff of  1.0D-12 yielded   3801 shell pairs
 There are     17413 function pairs (     19735 Cartesian)
 Smallest overlap matrix eigenvalue = 8.23E-04
 A unrestricted SCF calculation will be
 performed using DIIS
 SCF converges when DIIS error is below 1.0e-08
 ---------------------------------------
  Cycle       Energy         DIIS error
 ---------------------------------------
    1   -1721.3650966568      9.10e-05  
    2   -1722.0406396994      1.26e-04  
    3   -1722.0409506614      6.33e-05  
    4   -1722.0409971437      3.92e-05  
    5   -1722.0410182424      3.00e-05  
    6   -1722.0410355913      2.09e-05  
    7   -1722.0410510349      2.96e-06  
    8   -1722.0410513536      4.64e-07  
    9   -1722.0410513577      3.53e-08  
   10   -1722.0410513577      2.13e-08  
   11   -1722.0410513577      5.05e-09  Convergence criterion met
 ---------------------------------------
 SCF time:   CPU 1557.65s  wall 88.00s 
<S^2> =          8.754831441

************** Final PCM Free Energy Summary **************
 G_electrostatic  =      -0.67615198 hartree =    -424.29176892 kcal/mol
 G_cavitation     =       0.00000000 hartree =       0.00000000 kcal/mol
 G_dispersion     =       0.00000000 hartree =       0.00000000 kcal/mol
 G_repulsion      =       0.00000000 hartree =       0.00000000 kcal/mol
 --------------------------------------------------
 Non-electrostatic Free Energy =       0.00000000 hartree =       0.00000000 kcal/mol
 Total                         =      -0.67615198 hartree =    -424.29176892 kcal/mol
 --------------------------------------------------
 SCF Energy (H0 + V/2)                       =   -1722.04105136 
 Solute Internal Energy (H0)                 =   -1721.36489938 
 Total Free Energy (H0 + V/2 + non-elec)     =   -1722.04105136 hartree
                                             = -1080597.06917775 kcal/mol
***********************************************************

 SCF   energy in the final basis set =    -1722.0410513577
 Total energy in the final basis set =    -1722.0410513577
 
 --------------------------------------------------------------
 
                    Orbital Energies (a.u.)
 --------------------------------------------------------------
 
 Alpha MOs
 -- Occupied --
******** -30.3096 -26.1607 -26.1607 -26.1606 -19.2551 -19.2550 -19.2550
-19.2550 -19.2549 -19.2547  -3.7907  -2.5635  -2.5634  -2.5632  -1.1240
 -1.1126  -1.1125  -1.1122  -1.1105  -1.1103  -0.6351  -0.6347  -0.6342
 -0.6341  -0.6336  -0.6253  -0.6251  -0.6246  -0.6022  -0.5648  -0.5643
 -0.5642  -0.5409  -0.5405  -0.5401  -0.4264  -0.4264  -0.4236  -0.4227
 -0.4225  -0.4163  -0.4153  -0.4152
 -- Virtual --
 -0.0489  -0.0017  -0.0016  -0.0013   0.0553   0.0554   0.0931   0.0933
  0.0941   0.0987   0.0991   0.1002   0.1227   0.1903   0.1909   0.1916
  0.2232   0.2239   0.2248   0.2320   0.2350   0.2362   0.2372   0.3435
  0.3438   0.5561   0.5562   0.5568   0.5606   0.5970   0.5980   0.5993
  0.6214   0.6215   0.6315   0.6316   0.6322   0.6513   0.6641   0.6650
  0.6653   0.9064   0.9070   0.9077   0.9471   0.9473   0.9484   0.9991
  1.0004   1.0015   1.0259   1.0264   1.0412   1.0469   1.0482   1.0754
  1.1194   1.1213   1.1231   1.1549   1.1557   1.1559   1.1603   1.1609
  1.2330   1.2365   1.2369   1.3065   1.3089   1.3111   1.4103   1.4122
  1.4131   1.5870   1.5883   1.5918   1.5936   1.5955   1.5956   1.7299
  1.7303   1.7333   1.7341   1.7545   1.7557   1.7561   1.8658   1.8665
  1.9929   1.9959   2.0032   2.0301   2.0434   2.0444   2.0448   2.0590
  2.0593   2.0599   2.0875   2.0908   2.0912   2.0924   2.0951   2.2822
  2.3859   2.3870   2.7321   2.7488   2.7499   2.7529   2.7687   2.7711
  2.7714   2.8159   2.8184   2.8197   2.8300   2.8303   2.8389   2.8391
  2.8400   2.8525   2.8962   2.8976   2.8999   2.9588   3.0965   3.0968
  3.3260   3.3283   3.3295   3.4006   3.4012   3.4415   3.4421   3.4437
  3.4669   3.6873   3.6889   3.6943   3.6976   3.7028   3.7043
 
 Beta MOs
 -- Occupied --
******** -30.2122 -26.0796 -26.0795 -26.0795 -19.2514 -19.2514 -19.2514
-19.2514 -19.2513 -19.2511  -3.5649  -2.3255  -2.3255  -2.3254  -1.1165
 -1.1050  -1.1049  -1.1046  -1.1025  -1.1023  -0.6234  -0.6229  -0.6223
 -0.6217  -0.6215  -0.6210  -0.5889  -0.5466  -0.5465  -0.5280  -0.5276
 -0.5271  -0.4234  -0.4216  -0.4213  -0.4106  -0.4094  -0.4092
 -- Virtual --
 -0.2317  -0.2316  -0.2310  -0.1795  -0.1794  -0.0456   0.0001   0.0002
  0.0005   0.0596   0.0597   0.0961   0.0963   0.0970   0.1015   0.1018
  0.1029   0.1458   0.1918   0.1924   0.1931   0.2343   0.2350   0.2358
  0.2415   0.2487   0.2495   0.2507   0.3443   0.3446   0.5710   0.5715
  0.5717   0.5736   0.6060   0.6071   0.6083   0.6234   0.6235   0.6346
  0.6348   0.6353   0.6771   0.6855   0.6860   0.6867   0.9111   0.9117
  0.9125   0.9609   0.9611   0.9628   1.0040   1.0053   1.0064   1.0330
  1.0334   1.0529   1.0590   1.0606   1.0790   1.1224   1.1242   1.1260
  1.1567   1.1575   1.1577   1.2156   1.2163   1.2739   1.2798   1.2812
  1.3187   1.3208   1.3261   1.4139   1.4158   1.4167   1.5918   1.5929
  1.5960   1.5980   1.5998   1.6002   1.7468   1.7482   1.7510   1.7519
  1.7851   1.7869   1.7876   1.8733   1.8740   1.9997   2.0026   2.0098
  2.0346   2.0472   2.0482   2.0485   2.0658   2.0661   2.0665   2.0944
  2.0974   2.0980   2.0999   2.1028   2.2898   2.4353   2.4363   2.7690
  2.7703   2.7736   2.7782   2.7799   2.7802   2.8116   2.8360   2.8363
  2.8449   2.8453   2.8461   2.8505   2.8525   2.8533   2.9251   2.9644
  3.0185   3.0193   3.0208   3.1149   3.1153   3.3951   3.3968   3.3991
  3.4069   3.4075   3.4722   3.4788   3.4793   3.4802   3.6916   3.6932
  3.6986   3.7036   3.7088   3.7104
 --------------------------------------------------------------
 
          Ground-State Mulliken Net Atomic Charges

     Atom                 Charge (a.u.)    Spin (a.u.)
  --------------------------------------------------------
      1 O                    -0.186505       0.098341
      2 O                    -0.186532       0.098529
      3 Fe                    0.888102       4.342447
      4 O                    -0.186911       0.098492
      5 O                    -0.186422       0.098318
      6 O                    -0.187226       0.098485
      7 O                    -0.186944       0.098600
      8 H                     0.269304       0.005551
      9 H                     0.269258       0.005588
     10 H                     0.269387       0.005598
     11 H                     0.269097       0.005529
     12 H                     0.269778       0.005507
     13 H                     0.269626       0.005537
     14 H                     0.269374       0.005597
     15 H                     0.269170       0.005615
     16 H                     0.269510       0.005538
     17 H                     0.269417       0.005612
     18 H                     0.269101       0.005582
     19 H                     0.269416       0.005535
  --------------------------------------------------------
  Sum of atomic charges =     3.000000
  Sum of spin   charges =     5.000000

 -----------------------------------------------------------------
                    Cartesian Multipole Moments
 -----------------------------------------------------------------
    Charge (ESU x 10^10)
                14.4096
    Dipole Moment (Debye)
         X       8.1651      Y      -6.7755      Z      -5.4675
       Tot      11.9360
    Quadrupole Moments (Debye-Ang)
        XX      -2.3530     XY      -3.9173     YY      -3.7869
        XZ      -3.0446     YZ       2.8765     ZZ      -4.7237
    Octopole Moments (Debye-Ang^2)
       XXX      -9.0730    XXY       1.0062    XYY      -2.0415
       YYY       7.9268    XXZ       0.8585    XYZ       1.6436
       YYZ       1.6372    XZZ      -1.9115    YZZ       1.6671
       ZZZ       7.0146
    Hexadecapole Moments (Debye-Ang^3)
      XXXX    -128.1751   XXXY     -46.2144   XXYY     -19.9670
      XYYY      43.1589   YYYY    -132.9827   XXXZ       5.4952
      XXYZ       8.6428   XYYZ      16.8937   YYYZ      26.6654
      XXZZ     -78.8945   XYZZ      10.7144   YYZZ     -67.0642
      XZZZ     -15.4673   YZZZ     -40.3754   ZZZZ     -72.2980
 -----------------------------------------------------------------
 Calculating analytic gradient of the SCF energy
 Gradient of SCF Energy
            1           2           3           4           5           6
    1   0.0747920  -0.0743215   0.0009171   0.1432043  -0.1436067  -0.0231852
    2   0.1415462  -0.1403739  -0.0004330  -0.0820015   0.0823023  -0.0298010
    3   0.0422600  -0.0461182   0.0003749  -0.0041056   0.0044154   0.1602779
            7           8           9          10          11          12
    1   0.0142287  -0.1601179  -0.0800172  -0.0618844   0.0912948  -0.0544569
    2   0.0359563  -0.0113547   0.1393324   0.0753028  -0.0113454  -0.0990866
    3  -0.1603179  -0.0226836   0.0225843  -0.1293841  -0.1336420  -0.1164560
           13          14          15          16          17          18
    1   0.0555408  -0.0709832   0.0627968   0.1596792   0.0778997   0.0800921
    2   0.0975669  -0.1356188  -0.0749377   0.0106028   0.1312299  -0.1394426
    3   0.1173068   0.0536776   0.1295231   0.0259865  -0.0545675  -0.0222327
           19
    1  -0.0918725
    2   0.0105557
    3   0.1331011
 Max gradient component =       1.603E-01
 RMS gradient           =       9.171E-02
 Computing fast CPCM-SWIG gradient
 Updating gradient with PCM contributions...
 -- total gradient after adding PCM contribution --
---------------------------------------------------
  Atom         X              Y              Z     
---------------------------------------------------
   1       0.000037      -0.000015       0.000016
   2       0.000052      -0.000064      -0.000072
   3       0.000015       0.000071       0.000014
   4       0.000072      -0.000056      -0.000049
   5       0.000068      -0.000079       0.000095
   6       0.000062       0.000150      -0.000006
   7      -0.000132      -0.000039      -0.000042
   8       0.000013       0.000002      -0.000037
   9      -0.000004       0.000080       0.000081
  10       0.000017       0.000052      -0.000111
  11      -0.000043       0.000010       0.000069
  12      -0.000045      -0.000030      -0.000014
  13      -0.000027      -0.000049      -0.000003
  14      -0.000012      -0.000012      -0.000011
  15      -0.000042       0.000015      -0.000043
  16      -0.000059       0.000001       0.000085
  17       0.000115      -0.000055       0.000042
  18      -0.000025       0.000043      -0.000057
  19      -0.000062      -0.000024       0.000043
---------------------------------------------------
 Number of fixed atoms: 0
 Gradient time:  CPU 378.46 s  wall 20.87 s

     Step 22	:
        Energy is -1722.0410513577
                            Maximum         Tolerance       Converged?
         Gradient           1.49999854e-04	3.00000000e-04	true
         Displacement       2.85518470e-03	1.20000000e-03	false
         Energy change      6.06729827e-07	1.00000000e-06	true

	 Optimization Converged in 22 cycles

 *****************************************************
             End of BFGS Algorithm
 *****************************************************
		----------------------------------
		   Verification of Optimization
		----------------------------------

 Eigenvalues of Hessian in Optimization Verification
  -0.00000000  -0.00000000  -0.00000000   0.00000000   0.00000000
   0.00000000   0.00223460   0.00248504   0.00264996   0.00378990
   0.00518897   0.00608752   0.00777312   0.01004269   0.01597318
   0.01936106   0.02083678   0.03648530   0.03911203   0.04786344
   0.06038642   0.06505409   0.07708718   0.09315945   0.10577311
   0.11357037   0.12814852   0.13083560   0.18332328   0.19157956
   0.19496637   0.21010261   0.25480110   0.28894303   0.30376257
   0.33964524   0.37106727   0.51530606   0.71477913   0.88088655
   0.98424194   1.09359522   1.13757492   1.16607095   1.17452324
   1.27511973   1.32878593   1.37363658   1.37780030   1.42760649
   1.45118734   1.50706136   1.53738072   1.58161439   1.84729423
   91.13618115   468.15970684

 Found a transition state
		---------------------------------
		       End of Verification
		---------------------------------

 Final energy is -1722.041051357701

	*********************************
	** TRANSITION STATE CONVERGED  **
	*********************************
 Adding empirical dispersion correction 
 ----------------------------------------------------------------
 Doing -D3(BJ) with
 s6  =   1.00000
 s8  =   1.98890
 a1  =   0.39810
 a2  =   4.42110
 -D3 energy without 3body term =     -0.0256208949 hartrees
 ----------------------------------------------------------------
             Standard Nuclear Orientation (Angstroms)
    I     Atom           X                Y                Z
 ----------------------------------------------------------------
    1      O      -0.3466130659    -2.1925914954    -0.8644273393
    2      O       1.4677603424     1.2639657241     0.1008649389
    3      Fe      0.5606044802    -0.4640498322    -0.3817863026
    4      O      -1.2268976901     0.4548744225    -0.3686847759
    5      O       2.3476791388    -1.3854784087    -0.3973067502
    6      O       0.7635727078    -0.0342158728    -2.3344522872
    7      O       0.3529395523    -0.8971048385     1.5695017876
    8      H      -1.3044004943    -2.3148982770    -1.0115494480
    9      H       1.0325915588     2.1259241831     0.2483025742
   10      H      -1.6429598038     0.9218495534    -1.1188342800
   11      H       2.9344269082    -1.4826716099    -1.1720337285
   12      H       0.4574905910    -0.5933085035    -3.0746645109
   13      H       0.6661709097    -0.3472927124     2.3135599743
   14      H      -0.0643834120    -1.6966370739     1.9441239638
   15      H       2.7677276711    -1.8492578927     0.3523798596
   16      H       2.4229519667     1.3820991581     0.2669799857
   17      H       1.2208060367     0.7405898955    -2.7144235799
   18      H       0.0881917846    -3.0549430187    -1.0095007100
   19      H      -1.8176282823     0.5479666990     0.4037113283
 ----------------------------------------------------------------
 Nuclear Repulsion Energy =         692.02475963 hartrees
 There are       44 alpha and       39 beta electrons

Z-matrix Print:
$molecule
3 6
Fe
O  1 2.009524
H  2 0.976602 1 126.375071
H  2 0.976745 1 125.820728 3 178.993450 0
O  1 2.009691 2 179.833010 3 26.799276 0
H  5 0.976609 1 126.512746 2 156.680928 0
H  5 0.976824 1 125.606153 2 -26.615167 0
O  1 2.009915 2 90.016716 3 89.401666 0
H  8 0.976677 1 126.330958 2 177.199298 0
H  8 0.976844 1 125.911837 2 0.128390 0
O  1 2.010453 2 89.927936 3 179.788799 0
H  11 0.976699 1 125.878918 2 87.362739 0
H  11 0.976771 1 126.419745 2 -89.879513 0
O  1 2.010698 2 90.033584 3 -90.514864 0
H  14 0.976505 1 126.443873 2 2.420632 0
H  14 0.976689 1 125.849917 2 179.507161 0
O  1 2.010931 2 90.068352 3 -0.216581 0
H  17 0.976602 1 126.427672 2 -89.946943 0
H  17 0.976709 1 125.887415 2 91.219437 0
$end

 -----------------------------------------------------------------------
                  END OF GEOMETRY OPTIMIZER USING LIBOPT3               
 -----------------------------------------------------------------------
 Total job time:  7826.81s(wall), 137177.78s(cpu) 
 Thu May 30 22:37:05 2024

        *************************************************************
        *                                                           *
        *  Thank you very much for using Q-Chem.  Have a nice day.  *
        *                                                           *
        *************************************************************


