
Running Job 1 of 1 FeOX3_L_3_sextet_b3lypD3bj_ccpvdz_pcmH2O_freq.in
qchem FeOX3_L_3_sextet_b3lypD3bj_ccpvdz_pcmH2O_freq.in_283452.0 /data/scratch/FeOX3_L_3_sextet_b3lypD3bj_ccpvdz_pcmH2O_freq20240619091858/ 0
/opt/qchem/6.0.1/exe/qcprog.exe_s FeOX3_L_3_sextet_b3lypD3bj_ccpvdz_pcmH2O_freq.in_283452.0 /data/scratch/FeOX3_L_3_sextet_b3lypD3bj_ccpvdz_pcmH2O_freq20240619091858/
                  Welcome to Q-Chem
     A Quantum Leap Into The Future Of Chemistry


 Q-Chem 6.0, Q-Chem, Inc., Pleasanton, CA (2022)

 E. Epifanovsky,  A. T. B. Gilbert,  Xintian Feng,  Joonho Lee,  Yuezhi Mao,  
 N. Mardirossian,  P. Pokhilko,  A. White,  M. Wormit,  M. P. Coons,  
 A. L. Dempwolff,  Zhengting Gan,  D. Hait,  P. R. Horn,  L. D. Jacobson,  
 I. Kaliman,  J. Kussmann,  A. W. Lange,  Ka Un Lao,  D. S. Levine,  Jie Liu,  
 S. C. McKenzie,  A. F. Morrison,  K. Nanda,  F. Plasser,  D. R. Rehn,  
 M. L. Vidal,  Zhi-Qiang You,  Ying Zhu,  B. Alam,  B. Albrecht,  
 A. Aldossary,  E. Alguire,  J. H. Andersen,  V. Athavale,  D. Barton,  
 K. Begam,  A. Behn,  N. Bellonzi,  Y. A. Bernard,  E. J. Berquist,  
 H. Burton,  A. Carreras,  K. Carter-Fenk,  Romit Chakraborty,  
 Chandrima Chakravarty,  Junhan Chen,  A. D. Chien,  K. D. Closser,  
 V. Cofer-Shabica,  L. Cunha,  S. Dasgupta,  Jia Deng,  M. de Wergifosse,  
 M. Diedenhofen,  Hainam Do,  S. Ehlert,  Po-Tung Fang,  S. Fatehi,  
 Qingguo Feng,  T. Friedhoff,  B. Ganoe,  J. Gayvert,  Qinghui Ge,  
 G. Gidofalvi,  M. Goldey,  J. Gomes,  C. Gonzalez-Espinoza,  S. Gulania,  
 A. Gunina,  J. A. Gyamfi,  M. W. D. Hanson-Heine,  P. H. P. Harbach,  
 A. W. Hauser,  M. F. Herbst,  M. Hernandez Vera,  M. Hodecker,  
 Z. C. Holden,  S. Houck,  Xunkun Huang,  Kerwin Hui,  B. C. Huynh,  
 K. Ikeda,  M. Ivanov,  Hyunjun Ji,  Zuxin Jin,  Hanjie Jiang,  B. Kaduk,  
 S. Kaehler,  R. Kang,  K. Khistyaev,  Jaehoon Kim,  Yongbin Kim,  
 P. Klunzinger,  Z. Koczor-Benda,  Joong Hoon Koh,  D. Kosenkov,  
 Saikiran Kotaru,  L. Koulias,  T. Kowalczyk,  C. M. Krauter,  K. Kue,  
 A. Kunitsa,  T. Kus,  A. Landau,  K. V. Lawler,  D. Lefrancois,  S. Lehtola,  
 Rain Li,  Shaozhi Li,  Yi-Pei Li,  Jiashu Liang,  M. Liebenthal,  
 Hung-Hsuan Lin,  You-Sheng Lin,  Fenglai Liu,  Kuan-Yu Liu,  
 M. Loipersberger,  A. Luenser,  C. Malbon,  A. Manjanath,  P. Manohar,  
 E. Mansoor,  S. F. Manzer,  Shan-Ping Mao,  A. V. Marenich,  T. Markovich,  
 S. Mason,  F. Matz,  S. A. Maurer,  P. F. McLaughlin,  M. F. S. J. Menger,  
 J.-M. Mewes,  S. A. Mewes,  P. Morgante,  Mohammad Mostafanejad,  
 J. W. Mullinax,  K. J. Oosterbaan,  G. Paran,  V. Parravicini,  
 Alexander C. Paul,  Suranjan K. Paul,  F. Pavosevic,  Zheng Pei,  S. Prager,  
 E. I. Proynov,  E. Ramos,  B. Rana,  A. E. Rask,  A. Rettig,  R. M. Richard,  
 F. Rob,  E. Rossomme,  T. Scheele,  M. Scheurer,  M. Schneider,  
 P. E. Schneider,  N. Sergueev,  S. M. Sharada,  Hengyuan Shen,  
 W. Skomorowski,  D. W. Small,  C. J. Stein,  Yingli Su,  Yu-Chuan Su,  
 E. J. Sundstrom,  Zhen Tao,  J. Thirman,  Hung-Yi Tsai,  T. Tsuchimochi,  
 N. M. Tubman,  C. Utku,  S. P. Veccham,  O. Vydrov,  J. Wenzel,  
 Jonathan Wong,  J. Witte,  A. Yamada,  Chou-Hsun Yang,  Kun Yao,  
 S. Yeganeh,  S. R. Yost,  A. Zech,  F. Zeller,  Igor Ying Zhang,  
 Xing Zhang,  Yu Zhang,  D. Zuev,  A. Aspuru-Guzik,  A. T. Bell,  
 N. A. Besley,  K. B. Bravaya,  B. R. Brooks,  D. Casanova,  Jeng-Da Chai,  
 Hsing-Ta Chen,  S. Coriani,  C. J. Cramer,  A. E. DePrince, III,  
 R. A. DiStasio Jr.,  A. Dreuw,  B. D. Dunietz,  T. R. Furlani,  
 W. A. Goddard III,  S. Grimme,  S. Hammes-Schiffer,  T. Head-Gordon,  
 W. J. Hehre,  Chao-Ping Hsu,  T.-C. Jagau,  Yousung Jung,  A. Klamt,  
 Jing Kong,  D. S. Lambrecht,  Xiangyuan Li,  WanZhen Liang,  N. J. Mayhall,  
 C. W. McCurdy,  J. B. Neaton,  T. Neudecker,  C. Ochsenfeld,  
 J. A. Parkhill,  R. Peverati,  V. A. Rassolov,  Haisheng Ren,  Yihan Shao,  
 L. V. Slipchenko,  R. P. Steele,  J. E. Subotnik,  A. J. W. Thom,  
 A. Tkatchenko,  D. G. Truhlar,  T. Van Voorhis,  Fan Wang,  
 T. A. Wesolowski,  K. B. Whaley,  H. L. Woodcock III,  P. M. Zimmerman,  
 S. Faraji,  P. M. W. Gill,  M. Head-Gordon,  J. M. Herbert,  A. I. Krylov

 Contributors to earlier versions of Q-Chem not listed above: 
 R. D. Adamson,  B. Austin,  R. Baer,  J. Baker,  G. J. O. Beran,  
 K. Brandhorst,  S. T. Brown,  E. F. C. Byrd,  Arup K. Chakraborty,  
 G. K. L. Chan,  Chun-Min Chang,  Yunqing Chen,  C.-L. Cheng,  
 Siu Hung Chien,  D. M. Chipman,  D. L. Crittenden,  H. Dachsel,  
 R. J. Doerksen,  A. D. Dutoi,  R. G. Edgar,  J. Fosso-Tande,  
 L. Fusti-Molnar,  D. Ghosh,  A. Ghysels,  A. Golubeva-Zadorozhnaya,  
 J. Gonthier,  M. S. Gordon,  S. R. Gwaltney,  G. Hawkins,  J. E. Herr,  
 A. Heyden,  S. Hirata,  E. G. Hohenstein,  G. Kedziora,  F. J. Keil,  
 C. Kelley,  Jihan Kim,  R. A. King,  R. Z. Khaliullin,  P. P. Korambath,  
 W. Kurlancheek,  A. Laurent,  A. M. Lee,  M. S. Lee,  S. V. Levchenko,  
 Ching Yeh Lin,  D. Liotard,  E. Livshits,  R. C. Lochan,  I. Lotan,  
 L. A. Martinez-Martinez,  P. E. Maslen,  N. Nair,  D. P. O'Neill,  
 D. Neuhauser,  E. Neuscamman,  C. M. Oana,  R. Olivares-Amaya,  R. Olson,  
 T. M. Perrine,  B. Peters,  P. A. Pieniazek,  A. Prociuk,  Y. M. Rhee,  
 J. Ritchie,  M. A. Rohrdanz,  E. Rosta,  N. J. Russ,  H. F. Schaefer III,  
 M. W. Schmidt,  N. E. Schultz,  S. Sharma,  N. Shenvi,  C. D. Sherrill,  
 A. C. Simmonett,  A. Sodt,  T. Stein,  D. Stuck,  K. S. Thanthiriwatte,  
 V. Vanovschi,  L. Vogt,  Tao Wang,  A. Warshel,  M. A. Watson,  
 C. F. Williams,  Q. Wu,  X. Xu,  Jun Yang,  W. Zhang,  Yan Zhao

   Please cite Q-Chem as follows:
  "Software for the frontiers of quantum chemistry:
   An overview of developments in the Q-Chem 5 package"
   J. Chem. Phys. 155, 084801 (2021)
   https://doi.org/10.1063/5.0055522 (open access)

 Q-Chem 6.0.2 for Intel X86 EM64T Linux

 Parts of Q-Chem use Armadillo 9.900.5 (Nocturnal Misbehaviour).
 http://arma.sourceforge.net/

 Q-Chem begins on Wed Jun 19 09:18:58 2024  

 Host: 
0

     Scratch files written to /data/scratch/FeOX3_L_3_sextet_b3lypD3bj_ccpvdz_pcmH2O_freq20240619091858//
 Dec722 |scratch|qcdevops|jenkins|workspace|build_RNUM 8907   
 Processing $rem in /opt/qchem/6.0.1/config/preferences:
 Processing $rem in /home/sgardner/.qchemrc:
 Symmetry turned off for PCM/SM12/SMD calculation

 Checking the input file for inconsistencies... 	...done.

--------------------------------------------------------------
User input:
--------------------------------------------------------------
$molecule
-3 6
Fe    1.2239054    0.9736807   -0.3849133
O    0.6062048   -0.9646341   -0.3173741
C    0.0978894   -1.3682851    0.8062742
C    0.0403081   -0.2580997    1.9075682
O   -0.4962686    1.5656685   -1.2970065
O   -0.4362866   -0.5012671    3.0147174
O   -0.3141771   -2.5028222    1.0409917
O    1.4322977    2.9946460   -0.2660168
C    0.4742322    3.7022702   -0.7813490
C   -0.6820487    2.8461833   -1.3978900
O    0.5284757    0.8826008    1.5272111
O   -1.6543943    3.3913432   -1.9170222
O    0.4264120    4.9305666   -0.8117546
O    2.1336601    0.6699629   -2.1837848
O    3.1423055    0.6799125    0.2262869
C    3.4105472    0.4421150   -2.1497696
C    4.0133602    0.4410327   -0.7053961
O    4.1300688    0.2399275   -3.1265623
O    5.2111316    0.2265754   -0.5284427
$end

$rem
BASIS  =  gen
DFT_D  =  D3_BJ
GUI  =  2
JOB_TYPE  =  Frequency
METHOD  =  B3LYP
SCF_CONVERGENCE  =  8
SOLVENT_METHOD  =  PCM
MEM_TOTAL  =  80000
$end

$pcm
THEORY  CPCM
$end

$solvent
DIELECTRIC  78.39
$end

$van_der_waals
26   2.44
$end

!----------------------------------------------------------------------
! Basis Set Exchange
! Basis set: cc-pVDZ
!----------------------------------------------------------------------

$rem
BASIS GEN
PURECART 11
$end

$basis
H     0
S   4   1.00
1.301000D+01           1.968500D-02
1.962000D+00           1.379770D-01
4.446000D-01           4.781480D-01
1.220000D-01           5.012400D-01
S   1   1.00
1.220000D-01           1.000000D+00
P   1   1.00
7.270000D-01           1.0000000
****
C     0
S   9   1.00
6.665000D+03           6.920000D-04
1.000000D+03           5.329000D-03
2.280000D+02           2.707700D-02
6.471000D+01           1.017180D-01
2.106000D+01           2.747400D-01
7.495000D+00           4.485640D-01
2.797000D+00           2.850740D-01
5.215000D-01           1.520400D-02
1.596000D-01          -3.191000D-03
S   9   1.00
6.665000D+03          -1.460000D-04
1.000000D+03          -1.154000D-03
2.280000D+02          -5.725000D-03
6.471000D+01          -2.331200D-02
2.106000D+01          -6.395500D-02
7.495000D+00          -1.499810D-01
2.797000D+00          -1.272620D-01
5.215000D-01           5.445290D-01
1.596000D-01           5.804960D-01
S   1   1.00
1.596000D-01           1.000000D+00
P   4   1.00
9.439000D+00           3.810900D-02
2.002000D+00           2.094800D-01
5.456000D-01           5.085570D-01
1.517000D-01           4.688420D-01
P   1   1.00
1.517000D-01           1.000000D+00
D   1   1.00
5.500000D-01           1.0000000
****
N     0
S   9   1.00
9.046000D+03           7.000000D-04
1.357000D+03           5.389000D-03
3.093000D+02           2.740600D-02
8.773000D+01           1.032070D-01
2.856000D+01           2.787230D-01
1.021000D+01           4.485400D-01
3.838000D+00           2.782380D-01
7.466000D-01           1.544000D-02
2.248000D-01          -2.864000D-03
S   9   1.00
9.046000D+03          -1.530000D-04
1.357000D+03          -1.208000D-03
3.093000D+02          -5.992000D-03
8.773000D+01          -2.454400D-02
2.856000D+01          -6.745900D-02
1.021000D+01          -1.580780D-01
3.838000D+00          -1.218310D-01
7.466000D-01           5.490030D-01
2.248000D-01           5.788150D-01
S   1   1.00
2.248000D-01           1.000000D+00
P   4   1.00
1.355000D+01           3.991900D-02
2.917000D+00           2.171690D-01
7.973000D-01           5.103190D-01
2.185000D-01           4.622140D-01
P   1   1.00
2.185000D-01           1.000000D+00
D   1   1.00
8.170000D-01           1.0000000
****
O     0
S   9   1.00
1.172000D+04           7.100000D-04
1.759000D+03           5.470000D-03
4.008000D+02           2.783700D-02
1.137000D+02           1.048000D-01
3.703000D+01           2.830620D-01
1.327000D+01           4.487190D-01
5.025000D+00           2.709520D-01
1.013000D+00           1.545800D-02
3.023000D-01          -2.585000D-03
S   9   1.00
1.172000D+04          -1.600000D-04
1.759000D+03          -1.263000D-03
4.008000D+02          -6.267000D-03
1.137000D+02          -2.571600D-02
3.703000D+01          -7.092400D-02
1.327000D+01          -1.654110D-01
5.025000D+00          -1.169550D-01
1.013000D+00           5.573680D-01
3.023000D-01           5.727590D-01
S   1   1.00
3.023000D-01           1.000000D+00
P   4   1.00
1.770000D+01           4.301800D-02
3.854000D+00           2.289130D-01
1.046000D+00           5.087280D-01
2.753000D-01           4.605310D-01
P   1   1.00
2.753000D-01           1.000000D+00
D   1   1.00
1.185000D+00           1.0000000
****
Fe     0
S   20   1.00
4.316265D+06           8.048803D-06
6.463424D+05           6.258306D-05
1.470897D+05           3.290239D-04
4.166152D+04           1.387355D-03
1.359077D+04           5.023256D-03
4.905750D+03           1.610140D-02
1.912746D+03           4.590034D-02
7.926043D+02           1.136154D-01
3.448065D+02           2.283869D-01
1.558999D+02           3.221159D-01
7.223091D+01           2.383661D-01
3.272506D+01           7.404667D-02
1.566762D+01           9.214197D-02
7.503483D+00           9.339790D-02
3.312223D+00           1.573965D-02
1.558471D+00          -4.186682D-04
6.839140D-01           5.376318D-05
1.467570D-01          -3.816654D-05
7.058300D-02           4.319603D-05
3.144900D-02          -3.401019D-06
S   20   1.00
4.316265D+06          -4.155954D-06
6.463424D+05          -3.231401D-05
1.470897D+05          -1.699525D-04
4.166152D+04          -7.171369D-04
1.359077D+04          -2.603625D-03
4.905750D+03          -8.399109D-03
1.912746D+03          -2.434109D-02
7.926043D+02          -6.251948D-02
3.448065D+02          -1.365929D-01
1.558999D+02          -2.312707D-01
7.223091D+01          -2.383734D-01
3.272506D+01           3.123837D-02
1.566762D+01           5.086818D-01
7.503483D+00           4.987695D-01
3.312223D+00           9.033552D-02
1.558471D+00          -6.005337D-03
6.839140D-01           2.312454D-04
1.467570D-01          -5.643680D-04
7.058300D-02           4.992260D-04
3.144900D-02          -1.015293D-04
S   20   1.00
4.316265D+06           9.532178D-07
6.463424D+05           7.414605D-06
1.470897D+05           3.898393D-05
4.166152D+04           1.647152D-04
1.359077D+04           5.985980D-04
4.905750D+03           1.942390D-03
1.912746D+03           5.687237D-03
7.926043D+02           1.501329D-02
3.448065D+02           3.452455D-02
1.558999D+02           6.495820D-02
7.223091D+01           7.716194D-02
3.272506D+01          -1.873411D-02
1.566762D+01          -3.009185D-01
7.503483D+00          -4.554661D-01
3.312223D+00           1.286463D-01
1.558471D+00           7.183316D-01
6.839140D-01           4.051743D-01
1.467570D-01           2.168227D-02
7.058300D-02          -8.343566D-03
3.144900D-02           3.658979D-03
S   20   1.00
4.316265D+06          -2.063008D-07
6.463424D+05          -1.604169D-06
1.470897D+05          -8.438437D-06
4.166152D+04          -3.563151D-05
1.359077D+04          -1.295998D-04
4.905750D+03          -4.201534D-04
1.912746D+03          -1.231954D-03
7.926043D+02          -3.248922D-03
3.448065D+02          -7.493717D-03
1.558999D+02          -1.410102D-02
7.223091D+01          -1.691600D-02
3.272506D+01           4.218996D-03
1.566762D+01           6.833810D-02
7.503483D+00           1.098201D-01
3.312223D+00          -4.009005D-02
1.558471D+00          -2.174739D-01
6.839140D-01          -2.465135D-01
1.467570D-01           2.731435D-01
7.058300D-02           5.748321D-01
3.144900D-02           3.012713D-01
S   20   1.00
4.316265D+06          -4.009367D-07
6.463424D+05          -3.189255D-06
1.470897D+05          -1.623079D-05
4.166152D+04          -7.157920D-05
1.359077D+04          -2.463958D-04
4.905750D+03          -8.544907D-04
1.912746D+03          -2.307593D-03
7.926043D+02          -6.728292D-03
3.448065D+02          -1.366165D-02
1.558999D+02          -3.062240D-02
7.223091D+01          -2.631137D-02
3.272506D+01          -9.760183D-03
1.566762D+01           1.801906D-01
7.503483D+00           1.529634D-01
3.312223D+00           5.505413D-02
1.558471D+00          -9.551364D-01
6.839140D-01           2.586813D-01
1.467570D-01           1.834049D+00
7.058300D-02          -9.333240D-01
3.144900D-02          -6.981605D-01
S   1   1.00
3.144900D-02           1.000000D+00
P   16   1.00
1.774569D+04           4.100000D-05
4.200721D+03           3.690000D-04
1.364429D+03           2.129000D-03
5.220806D+02           9.369000D-03
2.214595D+02           3.309700D-02
1.009096D+02           9.443100D-02
4.840115D+01           2.080770D-01
2.398536D+01           3.323330D-01
1.218250D+01           3.329870D-01
6.242298D+00           1.568430D-01
3.110944D+00           2.154900D-02
1.509958D+00          -2.095000D-03
7.108450D-01          -1.739000D-03
2.731900D-01          -3.000000D-04
1.042330D-01           2.900000D-05
3.829100D-02          -1.100000D-05
P   16   1.00
1.774569D+04          -1.500000D-05
4.200721D+03          -1.300000D-04
1.364429D+03          -7.510000D-04
5.220806D+02          -3.329000D-03
2.214595D+02          -1.191200D-02
1.009096D+02          -3.493300D-02
4.840115D+01          -7.998900D-02
2.398536D+01          -1.346360D-01
1.218250D+01          -1.385980D-01
6.242298D+00           3.027800D-02
3.110944D+00           3.332160D-01
1.509958D+00           4.561530D-01
7.108450D-01           2.850510D-01
2.731900D-01           4.614400D-02
1.042330D-01          -3.249000D-03
3.829100D-02           1.357000D-03
P   16   1.00
1.774569D+04           5.000000D-06
4.200721D+03           4.200000D-05
1.364429D+03           2.410000D-04
5.220806D+02           1.085000D-03
2.214595D+02           3.831000D-03
1.009096D+02           1.142300D-02
4.840115D+01           2.579200D-02
2.398536D+01           4.481800D-02
1.218250D+01           4.459800D-02
6.242298D+00          -1.117700D-02
3.110944D+00          -1.381340D-01
1.509958D+00          -1.882850D-01
7.108450D-01          -1.073990D-01
2.731900D-01           4.448630D-01
1.042330D-01           6.402390D-01
3.829100D-02           6.445700D-02
P   16   1.00
1.774569D+04           3.000000D-06
4.200721D+03           2.900000D-05
1.364429D+03           1.650000D-04
5.220806D+02           7.340000D-04
2.214595D+02           2.626000D-03
1.009096D+02           7.725000D-03
4.840115D+01           1.773300D-02
2.398536D+01           3.005500D-02
1.218250D+01           3.109400D-02
6.242298D+00          -1.004800D-02
3.110944D+00          -8.830600D-02
1.509958D+00          -1.298240D-01
7.108450D-01          -7.693700D-02
2.731900D-01           2.126610D-01
1.042330D-01           5.730610D-01
3.829100D-02           3.696510D-01
P   1   1.00
3.829100D-02           1.000000D+00
D   8   1.00
1.133440D+02           3.530000D-03
3.364140D+01           2.578400D-02
1.233100D+01           9.911900D-02
4.994780D+00           2.390730D-01
2.072800D+00           3.571990D-01
8.307530D-01           3.621880D-01
3.091780D-01           2.364610D-01
1.001300D-01           6.011800D-02
D   8   1.00
1.133440D+02          -3.890000D-03
3.364140D+01          -2.844200D-02
1.233100D+01          -1.124290D-01
4.994780D+00          -2.742570D-01
2.072800D+00          -3.155460D-01
8.307530D-01           5.710900D-02
3.091780D-01           5.636040D-01
1.001300D-01           3.846370D-01
D   1   1.00
1.001300D-01           1.000000D+00
F   2   1.00
3.224300D+00           4.222490D-01
7.758000D-01           7.714680D-01
****
$end


--------------------------------------------------------------
 Adding empirical dispersion correction 
 ----------------------------------------------------------------
 Doing -D3(BJ) with
 s6  =   1.00000
 s8  =   1.98890
 a1  =   0.39810
 a2  =   4.42110
 -D3 energy without 3body term =     -0.0421788212 hartrees
 ----------------------------------------------------------------
             Standard Nuclear Orientation (Angstroms)
    I     Atom           X                Y                Z
 ----------------------------------------------------------------
    1      Fe      1.2239054000     0.9736807000    -0.3849133000
    2      O       0.6062048000    -0.9646341000    -0.3173741000
    3      C       0.0978894000    -1.3682851000     0.8062742000
    4      C       0.0403081000    -0.2580997000     1.9075682000
    5      O      -0.4962686000     1.5656685000    -1.2970065000
    6      O      -0.4362866000    -0.5012671000     3.0147174000
    7      O      -0.3141771000    -2.5028222000     1.0409917000
    8      O       1.4322977000     2.9946460000    -0.2660168000
    9      C       0.4742322000     3.7022702000    -0.7813490000
   10      C      -0.6820487000     2.8461833000    -1.3978900000
   11      O       0.5284757000     0.8826008000     1.5272111000
   12      O      -1.6543943000     3.3913432000    -1.9170222000
   13      O       0.4264120000     4.9305666000    -0.8117546000
   14      O       2.1336601000     0.6699629000    -2.1837848000
   15      O       3.1423055000     0.6799125000     0.2262869000
   16      C       3.4105472000     0.4421150000    -2.1497696000
   17      C       4.0133602000     0.4410327000    -0.7053961000
   18      O       4.1300688000     0.2399275000    -3.1265623000
   19      O       5.2111316000     0.2265754000    -0.5284427000
 ----------------------------------------------------------------
 Nuclear Repulsion Energy =        1936.37717199 hartrees
 There are       83 alpha and       78 beta electrons
 Requested basis set is non-standard
 There are 123 shells and 295 basis functions

 Total QAlloc Memory Limit  80000 MB
 Mega-Array Size       188 MB
 MEM_STATIC part       192 MB

 Using C-PCM dielectric factor f(eps) = (eps-1)/eps = 0.987243
No default van der Waals radius is available for Z = 26
	Found R = 2.4400 A in the $van_der_waals section
 Discretize the solute cavity surface with Lebedev spheres
	Using 110 Lebedev grid points for each H atom
	Using 194 Lebedev grid points for other atoms
	Atomic van der Waals radii (Bondi set) will be scaled by 1.20
 Using smooth SwiG surface discretization
 Remove points where switching function is < 1.0e-08
 Keep 1627 surface tesserae and discard 2059 interior tesserae
 Molecular Surface Area = 262.626 Angst**2

 ================ Generating on-the-fly SAD Guess ================
 Attempting to make child job directory: /data/scratch/FeOX3_L_3_sextet_b3lypD3bj_ccpvdz_pcmH2O_freq20240619091858//Frg1/
 Attempting to make child job directory: /data/scratch/FeOX3_L_3_sextet_b3lypD3bj_ccpvdz_pcmH2O_freq20240619091858//Frg2/
 Attempting to make child job directory: /data/scratch/FeOX3_L_3_sextet_b3lypD3bj_ccpvdz_pcmH2O_freq20240619091858//Frg3/
 Creating input file /data/scratch/FeOX3_L_3_sextet_b3lypD3bj_ccpvdz_pcmH2O_freq20240619091858/Frg1.input
 using default PutDataFrgm: nothing
 calling putenv with: QCSCRATCH=/data/scratch/FeOX3_L_3_sextet_b3lypD3bj_ccpvdz_pcmH2O_freq20240619091858/ 
 Spawning Job For Fragment 0
 Done Job For Fragment 0
 calling putenv with: QCSCRATCH=/data/scratch 
 calling putenv with: QCTHREADS=20 
 Creating input file /data/scratch/FeOX3_L_3_sextet_b3lypD3bj_ccpvdz_pcmH2O_freq20240619091858/Frg2.input
 using default PutDataFrgm: nothing
 calling putenv with: QCSCRATCH=/data/scratch/FeOX3_L_3_sextet_b3lypD3bj_ccpvdz_pcmH2O_freq20240619091858/ 
 Spawning Job For Fragment 1
 Done Job For Fragment 1
 calling putenv with: QCSCRATCH=/data/scratch 
 calling putenv with: QCTHREADS=20 
 Creating input file /data/scratch/FeOX3_L_3_sextet_b3lypD3bj_ccpvdz_pcmH2O_freq20240619091858/Frg3.input
 using default PutDataFrgm: nothing
 calling putenv with: QCSCRATCH=/data/scratch/FeOX3_L_3_sextet_b3lypD3bj_ccpvdz_pcmH2O_freq20240619091858/ 
 Spawning Job For Fragment 2
 Done Job For Fragment 2
 calling putenv with: QCSCRATCH=/data/scratch 
 calling putenv with: QCTHREADS=20 
 Time for running child jobs:  CPU 1.93 s  wall 62.54 s
 A cutoff of  1.0D-12 yielded   7116 shell pairs
 There are     39712 function pairs (     46015 Cartesian)
 Smallest overlap matrix eigenvalue = 3.75E-04
 ============= Method Specific SAD Guess Constructed =============
 Guess from on-the-fly superposition of atomic densities
 Warning: Energy on first SCF cycle will be non-variational

 -----------------------------------------------------------------------
  General SCF calculation program by
  Eric Jon Sundstrom, Paul Horn, Yuezhi Mao, Dmitri Zuev, Alec White,
  David Stuck, Shaama M.S., Shane Yost, Joonho Lee, David Small,
  Daniel Levine, Susi Lehtola, Hugh Burton, Evgeny Epifanovsky,
  Bang C. Huynh
 -----------------------------------------------------------------------
 Exchange:     0.2000 Hartree-Fock + 0.0800 Slater + 0.7200 B88
 Correlation:  0.1900 VWN1RPA + 0.8100 LYP
 Using SG-1 standard quadrature grid
 Dispersion:   Grimme D3
 using 20 threads for integral computing
 -------------------------------------------------------
 OpenMP Integral computing Module                
 Release: version 1.0, May 2013, Q-Chem Inc. Pittsburgh 
 -------------------------------------------------------
 C-PCM solvent model [f = (eps-1)/eps], solve by matrix inversion
 A unrestricted SCF calculation will be
 performed using DIIS
 SCF converges when DIIS error is below 1.0e-08
 ---------------------------------------
  Cycle       Energy         DIIS error
 ---------------------------------------
    1   -2400.4508126518      2.41e-02  
    2   -2395.2578381031      4.57e-03  
    3   -2387.0981523190      1.71e-02  
    4   -2394.9693720633      5.55e-03  
    5   -2395.9217676523      5.22e-04  
    6   -2395.9201560915      6.04e-04  
    7   -2395.9308255165      2.23e-04  
    8   -2395.9324750656      4.77e-05  
    9   -2395.9325879544      2.01e-05  
   10   -2395.9326078189      4.00e-06  
   11   -2395.9326096817      2.28e-06  
   12   -2395.9326099254      1.70e-06  
   13   -2395.9326100754      5.49e-07  
   14   -2395.9326100918      3.96e-07  
   15   -2395.9326100977      1.31e-07  
   16   -2395.9326100991      6.09e-08  
   17   -2395.9326100992      3.52e-08  
   18   -2395.9326100992      1.11e-08  
   19   -2395.9326100992      4.83e-09  Convergence criterion met
 ---------------------------------------
 SCF time:   CPU 3900.17s  wall 240.00s 
<S^2> =          8.755666235

************** Final PCM Free Energy Summary **************
 G_electrostatic  =      -0.53975155 hartree =    -338.69920927 kcal/mol
 G_cavitation     =       0.00000000 hartree =       0.00000000 kcal/mol
 G_dispersion     =       0.00000000 hartree =       0.00000000 kcal/mol
 G_repulsion      =       0.00000000 hartree =       0.00000000 kcal/mol
 --------------------------------------------------
 Non-electrostatic Free Energy =       0.00000000 hartree =       0.00000000 kcal/mol
 Total                         =      -0.53975155 hartree =    -338.69920927 kcal/mol
 --------------------------------------------------
 SCF Energy (H0 + V/2)                       =   -2395.93261010 
 Solute Internal Energy (H0)                 =   -2395.39285855 
 Total Free Energy (H0 + V/2 + non-elec)     =   -2395.93261010 hartree
                                             = -1503470.40471497 kcal/mol
***********************************************************

 SCF   energy in the final basis set =    -2395.9326100992
 Total energy in the final basis set =    -2395.9326100992
 
 --------------------------------------------------------------
 
                    Orbital Energies (a.u.)
 --------------------------------------------------------------
 
 Alpha MOs
 -- Occupied --
******** -30.1463 -25.9986 -25.9975 -25.9974 -19.1140 -19.1139 -19.1138
-19.1138 -19.1137 -19.1136 -19.0944 -19.0943 -19.0942 -19.0942 -19.0942
-19.0941 -10.2776 -10.2774 -10.2774 -10.2774 -10.2772 -10.2772  -3.6286
 -2.4034  -2.4014  -2.4013  -1.0582  -1.0555  -1.0554  -1.0251  -1.0248
 -1.0247  -0.9716  -0.9671  -0.9669  -0.9463  -0.9456  -0.9455  -0.6110
 -0.6076  -0.6076  -0.5137  -0.5135  -0.5070  -0.5008  -0.4765  -0.4763
 -0.4498  -0.4498  -0.4438  -0.4290  -0.4290  -0.4261  -0.4178  -0.4177
 -0.4106  -0.4103  -0.4051  -0.4050  -0.3782  -0.3781  -0.3705  -0.3704
 -0.3689  -0.3180  -0.3148  -0.3071  -0.3070  -0.2877  -0.2876  -0.2710
 -0.2682  -0.2681  -0.2641  -0.2629  -0.2627  -0.2450  -0.2279  -0.2255
 -0.2254  -0.2181  -0.2180
 -- Virtual --
 -0.0088  -0.0067  -0.0066   0.0451   0.0669   0.0719   0.0722   0.1280
  0.1319   0.1320   0.2154   0.2489   0.2491   0.2589   0.2813   0.2827
  0.2838   0.3112   0.3227   0.3236   0.3346   0.3375   0.3380   0.3617
  0.3621   0.3729   0.3830   0.3838   0.4034   0.4593   0.4601   0.5102
  0.5186   0.5189   0.5508   0.5581   0.5592   0.5727   0.5879   0.5882
  0.5892   0.5947   0.5947   0.6061   0.6106   0.6129   0.6141   0.6514
  0.6516   0.6912   0.6914   0.6938   0.7519   0.7647   0.7648   0.7728
  0.8647   0.8647   0.8686   0.9066   0.9068   0.9295   0.9389   0.9636
  0.9641   0.9969   0.9976   0.9985   1.0107   1.0110   1.0112   1.0204
  1.0206   1.0318   1.0340   1.0562   1.0568   1.0855   1.0886   1.0889
  1.1402   1.1518   1.1523   1.1588   1.1593   1.1717   1.1735   1.1751
  1.2005   1.2021   1.2127   1.2448   1.2462   1.2669   1.3194   1.3391
  1.3399   1.3498   1.3527   1.3652   1.4101   1.4216   1.4225   1.4251
  1.4705   1.4725   1.5371   1.5846   1.5847   1.5923   1.5958   1.5964
  1.6295   1.6369   1.6441   1.6447   1.7023   1.7025   1.7261   1.7266
  1.7437   1.7783   1.7808   1.7862   1.8505   1.8547   1.8553   1.9110
  1.9497   1.9497   1.9764   2.0305   2.0308   2.0631   2.0681   2.0702
  2.0860   2.1184   2.1188   2.1617   2.1640   2.2669   2.3039   2.4074
  2.4076   2.6045   2.6053   2.6186   2.6410   2.6422   2.6422   2.6457
  2.6465   2.6603   2.6639   2.6683   2.6684   2.6769   2.6793   2.7154
  2.7159   2.7370   2.7387   2.7389   2.7447   2.7466   2.7550   2.8640
  2.8658   2.8953   2.8998   2.9048   2.9053   2.9174   2.9708   2.9725
  2.9867   3.0000   3.0011   3.0723   3.0753   3.0894   3.0896   3.0943
  3.1306   3.2531   3.2627   3.2655   3.2657   3.2663   3.2666   3.3123
  3.3173   3.3178   3.3326   3.3327   3.3832   3.3899   3.4314   3.4320
  3.4718   3.4769   3.4775   3.5091   3.5143   3.5153   3.6029   3.6081
  3.6083   3.6351   3.6355   3.6357
 
 Beta MOs
 -- Occupied --
******** -30.0521 -25.9198 -25.9192 -25.9192 -19.1102 -19.1102 -19.1101
-19.1100 -19.1100 -19.1099 -19.0938 -19.0938 -19.0937 -19.0937 -19.0937
-19.0936 -10.2776 -10.2775 -10.2774 -10.2774 -10.2773 -10.2773  -3.4096
 -2.1718  -2.1710  -2.1709  -1.0544  -1.0519  -1.0518  -1.0214  -1.0211
 -1.0210  -0.9670  -0.9622  -0.9621  -0.9409  -0.9400  -0.9399  -0.6087
 -0.6056  -0.6055  -0.4979  -0.4946  -0.4868  -0.4866  -0.4660  -0.4659
 -0.4333  -0.4333  -0.4311  -0.4258  -0.4257  -0.4241  -0.4083  -0.4054
 -0.4053  -0.3720  -0.3694  -0.3692  -0.3177  -0.3176  -0.3097  -0.3082
 -0.2925  -0.2924  -0.2848  -0.2847  -0.2659  -0.2653  -0.2591  -0.2588
 -0.2480  -0.2479  -0.2362  -0.2274  -0.2235  -0.2235
 -- Virtual --
 -0.0826  -0.0809  -0.0808  -0.0338  -0.0334  -0.0067  -0.0021  -0.0019
  0.0466   0.0676   0.0728   0.0731   0.1316   0.1340   0.1342   0.2397
  0.2509   0.2510   0.2637   0.2872   0.2896   0.2905   0.3199   0.3285
  0.3292   0.3432   0.3435   0.3436   0.3685   0.3690   0.3747   0.3865
  0.3872   0.4130   0.4639   0.4647   0.5102   0.5226   0.5229   0.5565
  0.5587   0.5597   0.5740   0.5892   0.5895   0.5901   0.5966   0.5967
  0.6084   0.6142   0.6151   0.6164   0.6549   0.6552   0.6945   0.6947
  0.6951   0.7638   0.7804   0.7807   0.8081   0.8676   0.8676   0.8700
  0.9154   0.9155   0.9424   0.9436   0.9662   0.9668   0.9989   0.9997
  1.0000   1.0125   1.0128   1.0130   1.0277   1.0280   1.0365   1.0373
  1.0589   1.0596   1.0870   1.0902   1.0905   1.1420   1.1581   1.1587
  1.1634   1.1637   1.1734   1.1774   1.1790   1.2139   1.2193   1.2211
  1.2657   1.2672   1.3066   1.3249   1.3423   1.3429   1.3657   1.3684
  1.3939   1.4179   1.4304   1.4327   1.4339   1.4910   1.4931   1.5686
  1.5928   1.5930   1.5973   1.6286   1.6294   1.6365   1.6412   1.6543
  1.6545   1.7177   1.7178   1.7324   1.7331   1.7495   1.7991   1.8016
  1.8043   1.8528   1.8594   1.8601   1.9173   1.9534   1.9535   1.9809
  2.0426   2.0430   2.0653   2.0800   2.0819   2.0929   2.1243   2.1249
  2.1691   2.1714   2.2776   2.3157   2.4269   2.4270   2.6159   2.6166
  2.6315   2.6432   2.6444   2.6445   2.6603   2.6608   2.6654   2.6718
  2.6721   2.6786   2.6812   2.6940   2.7255   2.7262   2.7390   2.7421
  2.7422   2.7528   2.7545   2.7729   2.8845   2.8859   2.9022   2.9037
  2.9092   2.9097   2.9873   2.9878   2.9909   3.0353   3.0384   3.0482
  3.0911   3.0911   3.1069   3.1641   3.1674   3.2351   3.2595   3.2682
  3.2692   3.2696   3.2743   3.2743   3.3161   3.3327   3.3330   3.3479
  3.3482   3.3876   3.4179   3.4467   3.4469   3.4932   3.4937   3.5143
  3.5496   3.5727   3.5742   3.6091   3.6143   3.6149   3.6401   3.6401
  3.6403
 --------------------------------------------------------------
 
          Ground-State Mulliken Net Atomic Charges

     Atom                 Charge (a.u.)    Spin (a.u.)
  --------------------------------------------------------
      1 Fe                    0.583948       4.244390
      2 O                    -0.379587       0.106566
      3 C                     0.122451      -0.000272
      4 C                     0.122412      -0.000292
      5 O                    -0.380518       0.106394
      6 O                    -0.339462       0.019764
      7 O                    -0.339510       0.019779
      8 O                    -0.380604       0.106334
      9 C                     0.122495      -0.000240
     10 C                     0.122235      -0.000229
     11 O                    -0.379913       0.106659
     12 O                    -0.339225       0.019774
     13 O                    -0.339196       0.019813
     14 O                    -0.380084       0.106008
     15 O                    -0.380218       0.106612
     16 C                     0.122366      -0.000261
     17 C                     0.121982      -0.000248
     18 O                    -0.340029       0.019672
     19 O                    -0.339544       0.019776
  --------------------------------------------------------
  Sum of atomic charges =    -3.000000
  Sum of spin   charges =     5.000000

 -----------------------------------------------------------------
                    Cartesian Multipole Moments
 -----------------------------------------------------------------
    Charge (ESU x 10^10)
               -14.4096
    Dipole Moment (Debye)
         X     -17.6861      Y     -13.9100      Z       5.5798
       Tot      23.1823
    Quadrupole Moments (Debye-Ang)
        XX    -215.9429     XY      -6.0582     YY    -205.5985
        XZ      23.8756     YZ      24.6617     ZZ    -175.0454
    Octopole Moments (Debye-Ang^2)
       XXX    -851.0335    XXY    -166.8903    XYY    -135.5407
       YYY    -632.1358    XXZ     176.1036    XYZ     -25.7715
       YYZ     101.9317    XZZ    -212.7959    YZZ    -138.3175
       ZZZ     165.6222
    Hexadecapole Moments (Debye-Ang^3)
      XXXX   -5527.2864   XXXY    -284.2483   XXYY   -1146.7502
      XYYY    -259.9465   YYYY   -4548.6943   XXXZ     977.8526
      XXYZ     217.5731   XYYZ      83.1166   YYYZ     834.9186
      XXZZ   -1243.8000   XYZZ     -58.3974   YYZZ    -881.6203
      XZZZ     777.5711   YZZZ     572.0633   ZZZZ   -2138.2594
 -----------------------------------------------------------------
 Calculating MO derivatives via CPSCF
 Computing fast CPCM-SWIG hessian.
   1         3          57      0.254488    0.040501
   2         3          57      0.029801    0.004948
   3         3          57      0.004819    0.000899
   4         3          57      0.000872    0.000178
   5        25          35      0.000140    0.000029
   6        57           3      0.000011    0.000004
   7        60           0      0.000000    0.000000    Roots Converged
 Calculating analytic Hessian of the SCF energy
 Polarizability Matrix (a.u.)
            1           2           3
    1-187.6747450  15.8490053  24.4553324
    2  15.8490053-184.6817580  27.8431531
    3  24.4553324  27.8431531-156.7950840
 
 Direct stationary perturbation theory relativistic correction:
 
 rels  =       5.201290971323
 relv  =     -19.299402756026
 rel2e =       4.669745121150
 E_rel =      -9.428366663553
 
 Computing fast CPCM-SWIG hessian
 Gradient time:  CPU 48185.36 s  wall 3344.83 s
 **********************************************************************
 **                                                                  **
 **                       VIBRATIONAL ANALYSIS                       **
 **                       --------------------                       **
 **                                                                  **
 **        VIBRATIONAL FREQUENCIES (CM**-1) AND NORMAL MODES         **
 **     FORCE CONSTANTS (mDYN/ANGSTROM) AND REDUCED MASSES (AMU)     **
 **                  INFRARED INTENSITIES (KM/MOL)                   **
 **                                                                  **
 **********************************************************************
 

 Mode:                 1                      2                      3
 Frequency:      -100.28                 -99.06                 -49.41
 Force Cnst:      0.0935                 0.0913                 0.0223
 Red. Mass:      15.7801                15.7937                15.4979
 IR Active:          YES                    YES                    YES
 IR Intens:        2.177                  2.302                  0.130
 Raman Active:       YES                    YES                    YES
               X      Y      Z        X      Y      Z        X      Y      Z
 Fe         0.038 -0.110  0.045    0.109  0.012 -0.062   -0.012 -0.019  0.003
 O         -0.045 -0.086  0.109    0.080  0.037 -0.017    0.111 -0.060  0.069
 C         -0.204  0.003  0.072   -0.062  0.124 -0.050    0.194 -0.077  0.101
 C         -0.146  0.032  0.047   -0.084  0.169 -0.099   -0.206  0.058 -0.049
 O          0.043 -0.107  0.066    0.048 -0.087 -0.018    0.018  0.035 -0.005
 O         -0.261  0.114  0.017   -0.247  0.263 -0.151   -0.546  0.182 -0.167
 O         -0.394  0.068  0.059   -0.179  0.169 -0.050    0.553 -0.181  0.231
 O          0.091 -0.125  0.023   -0.005  0.016 -0.058    0.050 -0.025  0.040
 C          0.119 -0.121 -0.016   -0.148 -0.037  0.132    0.063  0.004  0.060
 C          0.085 -0.106  0.033   -0.117 -0.099  0.163    0.055  0.044  0.021
 O          0.024 -0.037  0.057    0.075  0.105 -0.076   -0.139  0.033 -0.038
 O          0.094 -0.096  0.032   -0.248 -0.157  0.350    0.080  0.082  0.016
 O          0.174 -0.123 -0.084   -0.301 -0.039  0.287    0.080  0.006  0.102
 O         -0.029 -0.054 -0.009    0.144 -0.037 -0.048   -0.062  0.002 -0.028
 O          0.074 -0.069 -0.053    0.120  0.020 -0.047   -0.003 -0.023 -0.045
 C          0.013  0.172 -0.087    0.132 -0.115 -0.032   -0.060  0.017 -0.060
 C          0.080  0.179 -0.114    0.124 -0.061 -0.026   -0.032 -0.026 -0.072
 O          0.003  0.373 -0.136    0.130 -0.224 -0.014   -0.077  0.060 -0.081
 O          0.132  0.403 -0.191    0.118 -0.095 -0.008   -0.034 -0.061 -0.105
 TransDip   0.015 -0.041  0.017    0.042  0.005 -0.024   -0.005 -0.010  0.002

 Mode:                 4                      5                      6
 Frequency:       -45.94                 -42.60                 -15.00
 Force Cnst:      0.0193                 0.0166                 0.0024
 Red. Mass:      15.5181                15.4863                18.1169
 IR Active:          YES                    YES                    YES
 IR Intens:        0.196                  0.178                  8.853
 Raman Active:       YES                    YES                    YES
               X      Y      Z        X      Y      Z        X      Y      Z
 Fe        -0.002 -0.024 -0.012   -0.024 -0.002 -0.007    0.102  0.113  0.190
 O         -0.038 -0.008  0.052    0.005 -0.020 -0.045    0.214  0.075  0.029
 C         -0.031  0.025  0.069    0.008 -0.056 -0.058    0.017  0.013 -0.088
 C          0.032  0.044  0.053   -0.031 -0.073 -0.043   -0.065 -0.085  0.008
 O          0.078 -0.006 -0.143   -0.003  0.076  0.011    0.032 -0.065  0.212
 O          0.098  0.066  0.087   -0.046 -0.096 -0.055   -0.275 -0.143 -0.094
 O         -0.068  0.044  0.094    0.041 -0.073 -0.083   -0.108  0.023 -0.261
 O         -0.053 -0.029  0.128    0.051 -0.002 -0.002   -0.093  0.139  0.164
 C         -0.089 -0.019  0.212    0.072  0.039  0.021   -0.061  0.039 -0.043
 C          0.118 -0.003 -0.188    0.019  0.084  0.057    0.032 -0.090 -0.038
 O          0.009  0.034  0.000   -0.044 -0.058 -0.019    0.106 -0.093  0.187
 O          0.297  0.013 -0.507    0.004  0.120  0.123    0.092 -0.197 -0.261
 O         -0.269 -0.017  0.567    0.129  0.042  0.017   -0.096  0.034 -0.232
 O         -0.029 -0.043 -0.030   -0.041 -0.155  0.012   -0.075  0.179  0.093
 O          0.013 -0.000 -0.057   -0.012  0.142  0.001    0.175  0.177 -0.009
 C         -0.030 -0.045 -0.056   -0.052 -0.215  0.033   -0.113 -0.028 -0.022
 C          0.006  0.027 -0.072    0.011  0.226  0.003    0.044 -0.016 -0.088
 O         -0.058 -0.098 -0.067   -0.100 -0.579  0.073   -0.251 -0.221 -0.083
 O          0.022  0.103 -0.095    0.082  0.608 -0.018    0.032 -0.179 -0.206
 TransDip   0.001 -0.013 -0.004   -0.013 -0.000 -0.001    0.041  0.044  0.074

 Mode:                 7                      8                      9
 Frequency:       112.86                 117.08                 138.38
 Force Cnst:      0.1188                 0.1278                 0.1955
 Red. Mass:      15.8349                15.8260                17.3299
 IR Active:          YES                    YES                    YES
 IR Intens:        0.130                  0.050                  8.219
 Raman Active:       YES                    YES                    YES
               X      Y      Z        X      Y      Z        X      Y      Z
 Fe        -0.011 -0.013 -0.009    0.009 -0.004  0.006   -0.086 -0.096 -0.157
 O          0.437 -0.192  0.183    0.043  0.017  0.067    0.177 -0.182  0.060
 C          0.052 -0.080  0.049   -0.008  0.032  0.055    0.053 -0.060  0.063
 C         -0.065 -0.038 -0.003   -0.070  0.044  0.039    0.130  0.007 -0.002
 O          0.135  0.027 -0.156    0.242 -0.049 -0.400   -0.240  0.017  0.177
 O          0.095 -0.081  0.056    0.115 -0.021  0.107   -0.076  0.171 -0.053
 O         -0.217 -0.001 -0.033   -0.005  0.032  0.051   -0.131  0.016  0.101
 O          0.061  0.022 -0.018   -0.216 -0.033  0.465   -0.213 -0.123  0.310
 C          0.059  0.031  0.018   -0.018 -0.046  0.082   -0.031 -0.051  0.107
 C          0.067  0.035 -0.002    0.056 -0.052 -0.052   -0.078  0.046  0.062
 O         -0.331  0.043 -0.112   -0.318  0.114 -0.055    0.390 -0.120  0.002
 O          0.005  0.036  0.121   -0.064 -0.059  0.167    0.052  0.133 -0.088
 O          0.041  0.034  0.062    0.112 -0.048 -0.171    0.174 -0.046 -0.066
 O         -0.099 -0.289 -0.010    0.085  0.384 -0.075    0.098  0.276 -0.139
 O          0.033  0.520 -0.059   -0.019 -0.188 -0.041   -0.057  0.307 -0.084
 C         -0.056 -0.030 -0.022    0.022  0.057 -0.067    0.075  0.080 -0.031
 C         -0.045  0.095 -0.024    0.009 -0.033 -0.064   -0.031  0.103  0.012
 O         -0.024  0.114 -0.028   -0.021 -0.178 -0.054    0.114 -0.128  0.043
 O         -0.104 -0.197  0.011    0.022  0.040 -0.075   -0.079 -0.080  0.129
 TransDip  -0.006 -0.010 -0.002    0.004 -0.005  0.002   -0.038 -0.044 -0.071

 Mode:                10                     11                     12
 Frequency:       142.69                 180.52                 182.53
 Force Cnst:      0.1902                 0.2966                 0.3033
 Red. Mass:      15.8573                15.4483                15.4512
 IR Active:          YES                    YES                    YES
 IR Intens:        0.095                  0.013                  0.007
 Raman Active:       YES                    YES                    YES
               X      Y      Z        X      Y      Z        X      Y      Z
 Fe        -0.010 -0.006 -0.016   -0.023  0.020  0.001   -0.013 -0.020  0.018
 O          0.407 -0.141  0.104    0.342 -0.232  0.098   -0.220 -0.028  0.028
 C          0.092 -0.013  0.010    0.118 -0.115  0.029   -0.091 -0.082  0.075
 C         -0.042  0.041 -0.042    0.154 -0.057 -0.029   -0.016 -0.100  0.098
 O         -0.212 -0.033  0.331    0.186  0.100 -0.314    0.260 -0.054 -0.180
 O          0.102 -0.017  0.007   -0.075  0.107 -0.099   -0.097 -0.076  0.073
 O         -0.113  0.054 -0.030   -0.163 -0.020  0.028   -0.030 -0.102  0.111
 O          0.197 -0.020 -0.296   -0.031  0.146 -0.043    0.279  0.060 -0.343
 C          0.052 -0.033 -0.044   -0.033  0.140 -0.057    0.123  0.010 -0.099
 C         -0.027 -0.024  0.073    0.023  0.103 -0.108    0.147 -0.058 -0.051
 O         -0.315  0.132 -0.120    0.390 -0.139  0.003    0.136 -0.146  0.129
 O          0.078  0.008 -0.087   -0.092  0.063  0.064    0.017 -0.141  0.125
 O         -0.032 -0.033  0.099   -0.109  0.145 -0.025   -0.080  0.011  0.111
 O          0.040  0.406 -0.057   -0.120 -0.030  0.107    0.038  0.441 -0.127
 O         -0.076 -0.307  0.058   -0.096 -0.364  0.119   -0.108  0.261 -0.053
 C         -0.017  0.085  0.003   -0.120 -0.019  0.089   -0.026  0.149 -0.050
 C         -0.045 -0.047  0.022   -0.085 -0.093  0.073   -0.105  0.123 -0.017
 O         -0.033 -0.121  0.035   -0.155  0.070  0.053   -0.013 -0.134  0.014
 O         -0.018  0.086 -0.004   -0.039  0.112  0.009   -0.160 -0.054  0.082
 TransDip  -0.005 -0.001 -0.009    0.002  0.002 -0.003    0.001  0.001 -0.002

 Mode:                13                     14                     15
 Frequency:       209.24                 210.41                 246.35
 Force Cnst:      0.3981                 0.4033                 0.5207
 Red. Mass:      15.4319                15.4610                14.5611
 IR Active:          YES                    YES                    YES
 IR Intens:        1.889                  2.993                  0.023
 Raman Active:       YES                    YES                    YES
               X      Y      Z        X      Y      Z        X      Y      Z
 Fe         0.029  0.016 -0.032   -0.034  0.043 -0.004   -0.002  0.001  0.000
 O         -0.085 -0.126 -0.040    0.245  0.275  0.160   -0.037 -0.009  0.230
 C         -0.044 -0.078 -0.011    0.110  0.168  0.065   -0.095 -0.154  0.166
 C         -0.013 -0.015 -0.075    0.001  0.010  0.221   -0.115 -0.164  0.140
 O          0.233 -0.001  0.366   -0.018 -0.025 -0.063    0.013  0.225  0.078
 O          0.053  0.053 -0.034   -0.167 -0.200  0.121   -0.090 -0.101  0.180
 O         -0.033 -0.068  0.106    0.060  0.141 -0.221   -0.092 -0.184  0.099
 O          0.052  0.342  0.244    0.003 -0.075 -0.023   -0.173  0.052 -0.150
 C          0.033  0.201  0.099    0.006 -0.051 -0.006   -0.120  0.199 -0.077
 C          0.159 -0.021  0.170   -0.012 -0.018 -0.025   -0.113  0.210 -0.044
 O         -0.056 -0.020 -0.141    0.072  0.029  0.392   -0.111 -0.207 -0.025
 O          0.129 -0.277 -0.002   -0.009  0.011  0.007   -0.144  0.144 -0.088
 O         -0.153  0.204 -0.144    0.042 -0.056  0.035   -0.062  0.217 -0.028
 O         -0.005 -0.153 -0.214    0.043 -0.178 -0.284    0.223  0.022  0.078
 O         -0.234 -0.096 -0.116   -0.256 -0.143 -0.169    0.081 -0.074 -0.207
 C          0.008 -0.061 -0.120    0.050 -0.077 -0.168    0.229 -0.034 -0.082
 C         -0.141 -0.026 -0.055   -0.141 -0.046 -0.089    0.215 -0.057 -0.104
 O          0.157  0.008 -0.032    0.250 -0.000 -0.056    0.177 -0.049 -0.136
 O         -0.161  0.077  0.115   -0.157  0.081  0.115    0.221 -0.041 -0.030
 TransDip   0.028  0.015 -0.030   -0.035  0.042 -0.003   -0.003  0.003  0.000

 Mode:                16                     17                     18
 Frequency:       291.84                 325.17                 326.35
 Force Cnst:      1.1701                 1.9749                 1.9825
 Red. Mass:      23.3168                31.7021                31.5920
 IR Active:          YES                    YES                    YES
 IR Intens:       72.452                326.785                327.877
 Raman Active:       YES                    YES                    YES
               X      Y      Z        X      Y      Z        X      Y      Z
 Fe         0.198  0.210  0.346    0.560 -0.016 -0.308   -0.130  0.562 -0.270
 O         -0.053 -0.217 -0.073   -0.093  0.064  0.132   -0.041 -0.082  0.144
 C         -0.032 -0.163 -0.070   -0.087  0.012  0.124   -0.039 -0.137  0.091
 C          0.031 -0.065 -0.170   -0.104 -0.054  0.119   -0.019 -0.156  0.024
 O         -0.191 -0.009 -0.119   -0.095  0.066  0.026   -0.039 -0.202  0.011
 O          0.096  0.154 -0.120   -0.102 -0.204  0.133   -0.065 -0.133  0.033
 O         -0.091 -0.117  0.170   -0.027 -0.031  0.105   -0.116 -0.130  0.216
 O         -0.091 -0.197 -0.053   -0.116 -0.035  0.021    0.145 -0.102  0.098
 C         -0.085 -0.146 -0.048   -0.112 -0.019 -0.001    0.090 -0.153  0.069
 C         -0.153 -0.024 -0.087   -0.114  0.034 -0.002    0.024 -0.181  0.032
 O          0.040 -0.060 -0.220   -0.102 -0.106  0.068    0.009 -0.181 -0.019
 O         -0.082  0.198 -0.041   -0.055  0.163 -0.042    0.045 -0.240  0.014
 O          0.118 -0.158  0.063   -0.025 -0.016 -0.029    0.206 -0.193  0.111
 O          0.024 -0.035 -0.223   -0.204  0.026 -0.030    0.011 -0.074  0.084
 O         -0.191  0.006 -0.142   -0.108  0.002  0.180    0.075 -0.074  0.021
 C          0.002 -0.022 -0.181   -0.183  0.023  0.051    0.033 -0.054  0.089
 C         -0.134  0.006 -0.121   -0.147  0.021  0.120    0.072 -0.061  0.052
 O          0.195 -0.037 -0.063   -0.281  0.053  0.030   -0.018  0.022  0.043
 O         -0.187  0.047  0.122   -0.189  0.061  0.175    0.123 -0.018 -0.080
 TransDip   0.125  0.124  0.208    0.509 -0.016 -0.276   -0.122  0.510 -0.247

 Mode:                19                     20                     21
 Frequency:       336.53                 338.93                 352.10
 Force Cnst:      1.0502                 1.0644                 1.1574
 Red. Mass:      15.7381                15.7265                15.8457
 IR Active:          YES                    YES                    YES
 IR Intens:       11.319                 14.080                  0.189
 Raman Active:       YES                    YES                    YES
               X      Y      Z        X      Y      Z        X      Y      Z
 Fe         0.015 -0.029  0.009   -0.025 -0.002  0.008   -0.002  0.003 -0.001
 O          0.009 -0.084 -0.106    0.015 -0.117 -0.130    0.016  0.048  0.030
 C          0.035  0.087 -0.028    0.049  0.113 -0.030   -0.007 -0.073 -0.035
 C          0.032  0.036 -0.078    0.047  0.031 -0.112   -0.013  0.034  0.068
 O          0.161  0.138  0.086   -0.022 -0.022 -0.019    0.030 -0.002  0.025
 O         -0.015 -0.224 -0.159   -0.032 -0.355 -0.238    0.053  0.357  0.169
 O         -0.023  0.166  0.226   -0.044  0.229  0.343    0.067 -0.168 -0.353
 O         -0.179 -0.114 -0.093    0.030  0.019  0.009   -0.009 -0.037 -0.013
 C         -0.015  0.160 -0.005    0.006 -0.023 -0.001    0.045  0.047  0.023
 C         -0.121  0.080 -0.069    0.026 -0.009  0.011   -0.056 -0.027 -0.030
 O         -0.005  0.106  0.088    0.001  0.136  0.128    0.002 -0.025 -0.061
 O         -0.327 -0.377 -0.183    0.061  0.068  0.034   -0.169 -0.287 -0.094
 O          0.436  0.192  0.240   -0.074 -0.027 -0.041    0.299  0.062  0.163
 O         -0.037  0.008 -0.072    0.093 -0.002  0.192    0.012  0.014  0.081
 O          0.020  0.006  0.078   -0.058 -0.000 -0.194   -0.046 -0.006 -0.061
 C         -0.041  0.014  0.030    0.093 -0.029 -0.100    0.003 -0.008 -0.085
 C         -0.058  0.013 -0.001    0.145 -0.025  0.005    0.068 -0.010  0.060
 O          0.077 -0.003  0.123   -0.253  0.011 -0.372   -0.300  0.027 -0.319
 O         -0.044 -0.007 -0.149    0.098  0.022  0.429    0.024  0.035  0.435
 TransDip  -0.035  0.094 -0.039    0.094  0.021 -0.071    0.011 -0.009 -0.001

 Mode:                22                     23                     24
 Frequency:       479.21                 481.44                 483.04
 Force Cnst:      1.7472                 1.7669                 1.7778
 Red. Mass:      12.9131                12.9385                12.9323
 IR Active:          YES                    YES                    YES
 IR Intens:       46.526                 70.067                 69.911
 Raman Active:       YES                    YES                    YES
               X      Y      Z        X      Y      Z        X      Y      Z
 Fe         0.003  0.006 -0.001    0.006 -0.008  0.003   -0.008 -0.001  0.006
 O         -0.093  0.034 -0.015   -0.191  0.059 -0.052    0.070 -0.028  0.016
 C          0.244 -0.078  0.091    0.467 -0.149  0.172   -0.179  0.052 -0.067
 C          0.249 -0.072  0.080    0.476 -0.136  0.164   -0.179  0.053 -0.059
 O          0.031  0.004 -0.052    0.026  0.004 -0.039    0.110 -0.002 -0.199
 O         -0.093  0.022 -0.048   -0.179  0.050 -0.079    0.066 -0.017  0.030
 O         -0.099  0.018 -0.037   -0.186  0.038 -0.069    0.070 -0.019  0.022
 O          0.032  0.000 -0.049    0.023 -0.002 -0.049    0.105  0.001 -0.200
 C         -0.081 -0.001  0.149   -0.064 -0.002  0.117   -0.275  0.004  0.512
 C         -0.082  0.001  0.148   -0.062 -0.000  0.120   -0.273 -0.001  0.514
 O         -0.090  0.039 -0.032   -0.179  0.075 -0.056    0.075 -0.021  0.031
 O          0.028 -0.002 -0.061    0.026  0.000 -0.047    0.108 -0.002 -0.198
 O          0.029 -0.003 -0.060    0.023 -0.002 -0.047    0.105  0.002 -0.199
 O         -0.027 -0.199  0.019    0.020  0.118 -0.011    0.010  0.037  0.003
 O         -0.034 -0.193  0.034    0.021  0.121 -0.011    0.003  0.029 -0.007
 C          0.100  0.518 -0.045   -0.056 -0.299  0.023   -0.015 -0.078  0.009
 C          0.093  0.526 -0.037   -0.054 -0.302  0.022   -0.018 -0.082  0.004
 O         -0.039 -0.205 -0.000    0.021  0.117 -0.006    0.006  0.030  0.000
 O         -0.047 -0.206  0.012    0.024  0.116 -0.009    0.005  0.031 -0.006
 TransDip   0.101  0.180  0.072    0.147 -0.187  0.124   -0.195 -0.010  0.184

 Mode:                25                     26                     27
 Frequency:       511.15                 512.42                 564.11
 Force Cnst:      2.4353                 2.4471                 2.8339
 Red. Mass:      15.8199                15.8179                15.1149
 IR Active:          YES                    YES                    YES
 IR Intens:      139.927                140.648                  0.036
 Raman Active:       YES                    YES                    YES
               X      Y      Z        X      Y      Z        X      Y      Z
 Fe        -0.055  0.065 -0.010   -0.053 -0.040  0.054   -0.007 -0.003  0.004
 O         -0.001 -0.118 -0.096    0.026  0.394  0.268    0.035 -0.043 -0.118
 C          0.005 -0.037 -0.056   -0.014  0.123  0.138    0.043  0.046 -0.053
 C         -0.006  0.029  0.032   -0.004 -0.146 -0.124   -0.029 -0.050  0.058
 O          0.399  0.184  0.215   -0.090 -0.028 -0.052    0.146  0.370  0.071
 O          0.001  0.052  0.048    0.011 -0.127 -0.141   -0.027  0.036  0.095
 O         -0.001 -0.036 -0.025   -0.001  0.144  0.134    0.014  0.092  0.030
 O         -0.307 -0.342 -0.163    0.091  0.082  0.045    0.351 -0.008  0.182
 C         -0.146 -0.091 -0.079    0.044  0.021  0.032    0.130 -0.243  0.073
 C          0.137  0.120  0.072   -0.033 -0.016 -0.008   -0.140  0.238 -0.073
 O         -0.019  0.062  0.110    0.055 -0.278 -0.389   -0.030 -0.097 -0.014
 O          0.150  0.094  0.082   -0.042 -0.034 -0.027   -0.310 -0.028 -0.168
 O         -0.140 -0.116 -0.076    0.022  0.026  0.009   -0.149 -0.314 -0.081
 O         -0.057 -0.014 -0.328   -0.082 -0.008 -0.360   -0.171  0.021 -0.103
 O          0.188 -0.009  0.300    0.205 -0.010  0.292    0.033 -0.017 -0.218
 C         -0.054 -0.001 -0.116   -0.075 -0.006 -0.133   -0.132  0.036  0.061
 C          0.037  0.003  0.139    0.043 -0.008  0.128    0.135 -0.021 -0.060
 O         -0.056 -0.001 -0.140   -0.042  0.000 -0.133   -0.015  0.014  0.188
 O          0.057 -0.000  0.116    0.062  0.005  0.142    0.140 -0.020  0.116
 TransDip  -0.245  0.285 -0.044   -0.239 -0.176  0.237   -0.004  0.000  0.004

 Mode:                28                     29                     30
 Frequency:       564.90                 568.79                 666.81
 Force Cnst:      2.8411                 2.8740                 3.9502
 Red. Mass:      15.1107                15.0775                15.0787
 IR Active:          YES                    YES                    YES
 IR Intens:        0.024                  0.185                  0.006
 Raman Active:       YES                    YES                    YES
               X      Y      Z        X      Y      Z        X      Y      Z
 Fe         0.005 -0.006  0.002   -0.006 -0.008 -0.014    0.000 -0.001 -0.000
 O         -0.087  0.073  0.321   -0.062  0.059  0.275    0.003  0.224  0.214
 C         -0.124 -0.156  0.145   -0.112 -0.135  0.124    0.015  0.166  0.102
 C          0.080  0.166 -0.163    0.066  0.143 -0.145    0.027 -0.103 -0.166
 O         -0.001 -0.048 -0.006    0.073  0.208  0.052    0.226  0.159  0.129
 O          0.078 -0.098 -0.276    0.069 -0.079 -0.237    0.074  0.050 -0.161
 O         -0.042 -0.287 -0.097   -0.038 -0.248 -0.078    0.064  0.166 -0.047
 O         -0.074 -0.015 -0.032    0.194 -0.003  0.116   -0.216 -0.174 -0.125
 C         -0.028  0.034 -0.013    0.079 -0.145  0.038   -0.115 -0.144 -0.061
 C          0.030 -0.033  0.013   -0.083  0.139 -0.049    0.162  0.062  0.087
 O          0.071  0.330  0.084    0.076  0.269  0.073    0.005 -0.211 -0.227
 O          0.054  0.006  0.029   -0.182 -0.011 -0.098    0.138 -0.094  0.073
 O          0.020  0.045  0.011   -0.082 -0.185 -0.044    0.019 -0.181  0.012
 O         -0.258  0.037 -0.185    0.230 -0.015  0.149    0.114  0.009  0.288
 O          0.064 -0.037 -0.289   -0.048  0.044  0.269   -0.132 -0.008 -0.278
 C         -0.198  0.056  0.079    0.180 -0.055 -0.080    0.031  0.010  0.196
 C          0.203 -0.033 -0.078   -0.188  0.025  0.075   -0.117  0.010 -0.154
 O         -0.025  0.021  0.269    0.028 -0.020 -0.248   -0.120  0.031  0.136
 O          0.210 -0.029  0.176   -0.194  0.028 -0.154   -0.179  0.033 -0.015
 TransDip  -0.004  0.001 -0.002   -0.010 -0.005 -0.008    0.002 -0.001  0.001

 Mode:                31                     32                     33
 Frequency:       765.94                 766.33                 773.55
 Force Cnst:      5.1190                 5.1261                 5.2698
 Red. Mass:      14.8096                14.8150                14.9475
 IR Active:          YES                    YES                    YES
 IR Intens:       53.401                 56.916                306.854
 Raman Active:       YES                    YES                    YES
               X      Y      Z        X      Y      Z        X      Y      Z
 Fe        -0.015 -0.014  0.016    0.020 -0.018  0.002   -0.025 -0.030 -0.047
 O         -0.027 -0.060  0.016    0.127  0.334 -0.071    0.095  0.261 -0.059
 C         -0.002  0.044  0.046    0.019 -0.203 -0.226    0.014 -0.152 -0.176
 C         -0.000  0.042  0.035    0.003 -0.227 -0.202   -0.001 -0.176 -0.152
 O          0.280 -0.166  0.153   -0.106  0.055 -0.055    0.207 -0.121  0.107
 O         -0.019 -0.046  0.014    0.113  0.244 -0.098    0.083  0.185 -0.071
 O          0.024  0.025 -0.049   -0.113 -0.104  0.240   -0.085 -0.075  0.181
 O         -0.020  0.363 -0.009    0.013 -0.127  0.004   -0.014  0.264 -0.012
 C         -0.233 -0.148 -0.128    0.086  0.058  0.048   -0.167 -0.103 -0.094
 C         -0.217 -0.181 -0.111    0.072  0.063  0.036   -0.150 -0.132 -0.079
 O          0.029  0.011 -0.066   -0.137 -0.077  0.328   -0.113 -0.060  0.255
 O         -0.056  0.278 -0.029    0.014 -0.094  0.007   -0.034  0.194 -0.019
 O          0.202 -0.166  0.111   -0.074  0.067 -0.041    0.143 -0.115  0.078
 O          0.163 -0.047 -0.224    0.152 -0.047 -0.199   -0.159  0.042  0.211
 O         -0.274  0.044 -0.032   -0.254  0.044 -0.036    0.262 -0.049  0.033
 C          0.102 -0.002  0.206    0.094 -0.000  0.196   -0.100 -0.000 -0.194
 C          0.082  0.001  0.228    0.069  0.001  0.204   -0.070 -0.004 -0.211
 O         -0.214  0.037  0.003   -0.203  0.035  0.009    0.200 -0.035 -0.002
 O          0.164 -0.044 -0.149    0.141 -0.038 -0.137   -0.144  0.038  0.139
 TransDip  -0.136 -0.127  0.142    0.178 -0.161  0.026   -0.227 -0.273 -0.434

 Mode:                34                     35                     36
 Frequency:       855.36                 855.92                 856.29
 Force Cnst:      5.3212                 5.3278                 5.3322
 Red. Mass:      12.3442                12.3432                12.3430
 IR Active:          YES                    YES                    YES
 IR Intens:        0.046                  0.005                  0.003
 Raman Active:       YES                    YES                    YES
               X      Y      Z        X      Y      Z        X      Y      Z
 Fe         0.001 -0.000 -0.000   -0.000 -0.001  0.000   -0.000  0.000 -0.000
 O          0.022 -0.012  0.012   -0.101  0.038 -0.041   -0.066  0.023 -0.023
 C         -0.119  0.040 -0.037    0.511 -0.156  0.172    0.322 -0.096  0.111
 C          0.119 -0.041  0.038   -0.507  0.162 -0.177   -0.319  0.099 -0.114
 O         -0.009  0.004  0.013   -0.039  0.004  0.065    0.055  0.001 -0.101
 O         -0.025  0.011 -0.014    0.111 -0.039  0.047    0.072 -0.023  0.028
 O          0.029 -0.003  0.006   -0.119  0.028 -0.037   -0.074  0.020 -0.025
 O          0.006  0.005 -0.016    0.033  0.007 -0.068   -0.055 -0.006  0.101
 C         -0.042 -0.003  0.068   -0.181 -0.003  0.325    0.267  0.000 -0.492
 C          0.041  0.002 -0.069    0.179  0.003 -0.325   -0.263 -0.000  0.493
 O         -0.026  0.003 -0.006    0.108 -0.029  0.031    0.067 -0.021  0.021
 O         -0.006 -0.003  0.017   -0.037 -0.003  0.076    0.059 -0.001 -0.112
 O          0.011 -0.004 -0.015    0.043 -0.006 -0.073   -0.062  0.003  0.111
 O         -0.036 -0.130  0.020   -0.002 -0.014  0.003   -0.004 -0.028  0.003
 O          0.013  0.132 -0.007    0.004  0.013 -0.001    0.006  0.027 -0.004
 C          0.112  0.649 -0.061    0.012  0.066 -0.005    0.025  0.136 -0.009
 C         -0.117 -0.642  0.061   -0.013 -0.066  0.004   -0.026 -0.135  0.009
 O         -0.016 -0.150  0.005   -0.003 -0.015  0.001   -0.007 -0.031  0.003
 O          0.037  0.144 -0.014    0.002  0.015 -0.001    0.004  0.031 -0.002
 TransDip   0.006 -0.000 -0.004   -0.001 -0.002  0.000    0.001  0.000  0.001

 Mode:                37                     38                     39
 Frequency:       874.85                 875.35                 973.74
 Force Cnst:      6.6397                 6.6480                 8.3839
 Red. Mass:      14.7242                14.7257                15.0077
 IR Active:          YES                    YES                    YES
 IR Intens:       85.978                 86.229                  0.002
 Raman Active:       YES                    YES                    YES
               X      Y      Z        X      Y      Z        X      Y      Z
 Fe        -0.018  0.012  0.003   -0.008 -0.016  0.014    0.000  0.000  0.000
 O          0.004  0.020 -0.015    0.153  0.257 -0.198   -0.114 -0.294  0.071
 C         -0.003 -0.016 -0.017   -0.013 -0.237 -0.224   -0.021  0.115  0.167
 C         -0.002  0.019  0.021   -0.003  0.213  0.246   -0.012 -0.167 -0.117
 O          0.164 -0.233  0.097   -0.116  0.156 -0.058   -0.251  0.153 -0.133
 O         -0.014 -0.015  0.017   -0.136 -0.182  0.207    0.064  0.102 -0.086
 O         -0.010 -0.015  0.012   -0.121 -0.217  0.182    0.060  0.090 -0.101
 O          0.117 -0.261  0.064   -0.087  0.184 -0.038   -0.022  0.319 -0.012
 C          0.186  0.158  0.111   -0.131 -0.111 -0.075   -0.165 -0.075 -0.090
 C         -0.204 -0.136 -0.119    0.137  0.093  0.083    0.127  0.142  0.070
 O          0.007  0.021 -0.024    0.149  0.205 -0.252   -0.126 -0.075  0.290
 O         -0.139  0.206 -0.070    0.093 -0.140  0.049    0.064 -0.128  0.033
 O         -0.108  0.220 -0.060    0.074 -0.154  0.044    0.077 -0.116  0.042
 O          0.278 -0.066 -0.154    0.137 -0.040 -0.075    0.197 -0.055 -0.251
 O          0.307 -0.055 -0.093    0.143 -0.033 -0.041    0.313 -0.054  0.034
 C          0.103  0.027  0.277    0.049  0.011  0.136    0.113 -0.004  0.169
 C         -0.133 -0.019 -0.264   -0.062 -0.012 -0.125   -0.041 -0.011 -0.196
 O         -0.246  0.049  0.123   -0.121  0.022  0.061   -0.138  0.027  0.047
 O         -0.257  0.062  0.087   -0.121  0.027  0.041   -0.127  0.030  0.064
 TransDip  -0.247  0.161  0.036   -0.106 -0.206  0.187    0.001  0.001  0.001

 Mode:                40                     41                     42
 Frequency:      1263.38                1263.87                1270.30
 Force Cnst:     12.8760                12.8875                13.0704
 Red. Mass:      13.6919                13.6935                13.7477
 IR Active:          YES                    YES                    YES
 IR Intens:       61.213                 60.317                312.492
 Raman Active:       YES                    YES                    YES
               X      Y      Z        X      Y      Z        X      Y      Z
 Fe         0.006  0.003 -0.005   -0.004  0.007 -0.002    0.007  0.008  0.013
 O         -0.056 -0.033  0.125    0.113  0.068 -0.259    0.084  0.055 -0.208
 C          0.049 -0.040 -0.176   -0.103  0.092  0.371   -0.079  0.074  0.286
 C         -0.037 -0.177 -0.046    0.084  0.379  0.093    0.061  0.290  0.076
 O          0.022 -0.328  0.015   -0.001  0.011  0.000    0.018 -0.220  0.004
 O         -0.028 -0.001  0.077    0.059  0.001 -0.162    0.047  0.001 -0.127
 O          0.022  0.077  0.000   -0.048 -0.167 -0.000   -0.038 -0.130  0.000
 O         -0.258  0.159 -0.135    0.015 -0.009  0.006   -0.170  0.106 -0.097
 C          0.396 -0.005  0.212   -0.018  0.003 -0.011    0.259  0.002  0.138
 C          0.154  0.410  0.084   -0.009 -0.016 -0.004    0.105  0.267  0.056
 O          0.048  0.122 -0.029   -0.103 -0.269  0.066   -0.087 -0.208  0.049
 O         -0.165  0.049 -0.089    0.009 -0.003  0.004   -0.111  0.033 -0.059
 O         -0.027 -0.193 -0.014    0.001  0.007  0.001   -0.018 -0.129 -0.009
 O          0.162 -0.029  0.018    0.261 -0.049  0.029   -0.237  0.036 -0.026
 O         -0.107  0.028  0.135   -0.162  0.045  0.204    0.148 -0.048 -0.188
 C         -0.187  0.025 -0.130   -0.297  0.038 -0.200    0.260 -0.034  0.183
 C          0.045 -0.027 -0.227    0.064 -0.040 -0.353   -0.054  0.035  0.316
 O         -0.042  0.014  0.091   -0.064  0.022  0.140    0.059 -0.020 -0.128
 O          0.092 -0.015  0.034    0.146 -0.024  0.053   -0.133  0.022 -0.048
 TransDip   0.195  0.082 -0.134   -0.125  0.209 -0.050    0.230  0.265  0.444

 Mode:                43                     44                     45
 Frequency:      1375.42                1376.05                1402.13
 Force Cnst:     14.5754                14.5878                15.3307
 Red. Mass:      13.0767                13.0759                13.2354
 IR Active:          YES                    YES                    YES
 IR Intens:     1126.947               1110.165                  0.265
 Raman Active:       YES                    YES                    YES
               X      Y      Z        X      Y      Z        X      Y      Z
 Fe         0.002 -0.004  0.002    0.004  0.001 -0.003    0.000 -0.000 -0.000
 O         -0.065 -0.031  0.152    0.085  0.045 -0.212   -0.085 -0.069  0.186
 C          0.072 -0.070 -0.269   -0.102  0.097  0.376    0.078 -0.108 -0.315
 C          0.058  0.269  0.070   -0.082 -0.380 -0.102    0.058  0.317  0.109
 O          0.009 -0.289  0.004   -0.001 -0.033  0.004   -0.033  0.208 -0.017
 O          0.012 -0.012 -0.044   -0.018  0.016  0.065    0.023 -0.009 -0.071
 O          0.010  0.048  0.011   -0.013 -0.065 -0.016    0.018  0.072  0.009
 O          0.228 -0.125  0.122    0.021 -0.013  0.015   -0.153  0.118 -0.083
 C         -0.435 -0.003 -0.233   -0.046  0.000 -0.024    0.291  0.029  0.156
 C          0.178  0.454  0.096    0.020  0.049  0.011   -0.141 -0.292 -0.075
 O         -0.059 -0.150  0.027    0.080  0.217 -0.042   -0.082 -0.188  0.065
 O         -0.075  0.000 -0.041   -0.009  0.001 -0.005    0.065 -0.009  0.035
 O          0.030  0.078  0.016    0.003  0.007  0.002   -0.018 -0.071 -0.010
 O          0.110 -0.015  0.018    0.256 -0.045  0.042    0.214 -0.038  0.004
 O          0.067 -0.016 -0.094    0.148 -0.046 -0.208    0.147 -0.040 -0.154
 C         -0.160  0.021 -0.112   -0.367  0.046 -0.259   -0.265  0.031 -0.219
 C         -0.032  0.022  0.193   -0.074  0.049  0.438   -0.031  0.032  0.341
 O         -0.005  0.003  0.032   -0.015  0.009  0.077   -0.022  0.010  0.073
 O         -0.029  0.004 -0.019   -0.062  0.008 -0.043   -0.066  0.010 -0.035
 TransDip  -0.429  0.925 -0.341   -0.868 -0.186  0.591   -0.011  0.012 -0.002

 Mode:                46                     47                     48
 Frequency:      1706.20                1707.25                1712.26
 Force Cnst:     22.4936                22.5159                22.4591
 Red. Mass:      13.1143                13.1112                13.0017
 IR Active:          YES                    YES                    YES
 IR Intens:     2261.330               2088.270                618.618
 Raman Active:       YES                    YES                    YES
               X      Y      Z        X      Y      Z        X      Y      Z
 Fe        -0.010  0.009 -0.001   -0.008 -0.006  0.008   -0.004 -0.006  0.006
 O          0.003 -0.001 -0.003   -0.019 -0.021  0.040   -0.001 -0.000  0.005
 C         -0.003 -0.020 -0.008    0.165  0.443 -0.102    0.013  0.052  0.006
 C         -0.082 -0.053  0.180    0.147  0.071 -0.343    0.124  0.083 -0.272
 O         -0.014  0.055 -0.008    0.011 -0.028  0.004   -0.014  0.037 -0.009
 O          0.046  0.023 -0.110   -0.090 -0.039  0.215   -0.071 -0.034  0.166
 O          0.004  0.015 -0.001   -0.098 -0.275  0.049   -0.012 -0.035  0.003
 O         -0.025  0.022 -0.015   -0.002  0.007 -0.003    0.041 -0.047  0.021
 C          0.007 -0.374  0.005    0.025 -0.068  0.014   -0.089  0.581 -0.050
 C          0.417 -0.254  0.222   -0.216  0.153 -0.115    0.239 -0.215  0.128
 O          0.010  0.015 -0.009   -0.015 -0.033  0.014   -0.014 -0.026  0.015
 O         -0.260  0.137 -0.139    0.133 -0.074  0.071   -0.145  0.086 -0.077
 O         -0.001  0.234 -0.002   -0.004  0.035 -0.002    0.013 -0.337  0.009
 O         -0.046  0.007  0.006   -0.029  0.006  0.001   -0.038  0.009  0.008
 O         -0.015  0.003  0.016   -0.033  0.010  0.027    0.024 -0.004 -0.015
 C          0.284 -0.077 -0.348    0.150 -0.043 -0.216    0.242 -0.062 -0.245
 C          0.206 -0.036  0.045    0.421 -0.076  0.046   -0.242  0.047  0.010
 O         -0.156  0.045  0.221   -0.092  0.027  0.137   -0.116  0.032  0.157
 O         -0.132  0.023 -0.026   -0.254  0.045 -0.043    0.132 -0.024  0.017
 TransDip   1.062 -1.084  0.129    0.924  0.638 -0.939    0.285  0.569 -0.479

 Mode:                49                     50                     51
 Frequency:      1712.58                1715.27                1746.58
 Force Cnst:     22.4421                22.5045                23.5364
 Red. Mass:      12.9871                12.9823                13.0951
 IR Active:          YES                    YES                    YES
 IR Intens:      308.102                345.809                  1.234
 Raman Active:       YES                    YES                    YES
               X      Y      Z        X      Y      Z        X      Y      Z
 Fe        -0.006  0.004 -0.002   -0.003 -0.007 -0.008   -0.000  0.000 -0.000
 O          0.018  0.021 -0.029   -0.023 -0.029  0.045    0.022  0.021 -0.044
 C         -0.135 -0.315  0.121    0.182  0.425 -0.163   -0.127 -0.321  0.094
 C          0.149  0.124 -0.306   -0.182 -0.156  0.371   -0.144 -0.097  0.314
 O         -0.010  0.031 -0.005   -0.011  0.029 -0.004    0.011 -0.049  0.006
 O         -0.079 -0.042  0.182    0.095  0.051 -0.219    0.082  0.038 -0.194
 O          0.068  0.187 -0.040   -0.093 -0.253  0.054    0.071  0.198 -0.036
 O          0.008 -0.010  0.004    0.024 -0.028  0.015    0.037 -0.033  0.020
 C         -0.029  0.099 -0.016   -0.055  0.322 -0.030   -0.040  0.352 -0.023
 C          0.212 -0.157  0.113    0.172 -0.149  0.092   -0.248  0.168 -0.133
 O         -0.015 -0.031  0.021    0.023  0.040 -0.025    0.021  0.045 -0.020
 O         -0.130  0.073 -0.070   -0.105  0.061 -0.056    0.156 -0.083  0.083
 O          0.004 -0.053  0.003    0.008 -0.185  0.005    0.005 -0.211  0.003
 O          0.041 -0.009 -0.009    0.037 -0.005 -0.007   -0.051  0.009  0.003
 O         -0.047  0.011  0.032   -0.024  0.008  0.016   -0.038  0.010  0.034
 C         -0.262  0.065  0.241   -0.213  0.054  0.211    0.219 -0.058 -0.251
 C          0.507 -0.095  0.003    0.238 -0.046 -0.009    0.342 -0.063  0.021
 O          0.119 -0.033 -0.154    0.101 -0.028 -0.135   -0.114  0.033  0.162
 O         -0.285  0.051 -0.041   -0.129  0.023 -0.017   -0.202  0.036 -0.034
 TransDip   0.458 -0.299  0.130    0.097  0.431  0.399   -0.001 -0.025  0.025

 STANDARD THERMODYNAMIC QUANTITIES AT   298.15 K  AND     1.00 ATM

   This Molecule has  6 Imaginary Frequencies
   Zero point vibrational energy:       48.879 kcal/mol

   Atom    1 Element Fe Has Mass   55.93490
   Atom    2 Element O  Has Mass   15.99491
   Atom    3 Element C  Has Mass   12.00000
   Atom    4 Element C  Has Mass   12.00000
   Atom    5 Element O  Has Mass   15.99491
   Atom    6 Element O  Has Mass   15.99491
   Atom    7 Element O  Has Mass   15.99491
   Atom    8 Element O  Has Mass   15.99491
   Atom    9 Element C  Has Mass   12.00000
   Atom   10 Element C  Has Mass   12.00000
   Atom   11 Element O  Has Mass   15.99491
   Atom   12 Element O  Has Mass   15.99491
   Atom   13 Element O  Has Mass   15.99491
   Atom   14 Element O  Has Mass   15.99491
   Atom   15 Element O  Has Mass   15.99491
   Atom   16 Element C  Has Mass   12.00000
   Atom   17 Element C  Has Mass   12.00000
   Atom   18 Element O  Has Mass   15.99491
   Atom   19 Element O  Has Mass   15.99491
   Molecular Mass:   319.873820 amu
   Principal axes and moments of inertia in amu*Bohr^2:
                             1           2           3
    Eigenvalues --     5108.67214  5141.30374  8091.02886
          X              -0.48368     0.76500     0.42524
          Y               0.83769     0.26383     0.47819
          Z              -0.25363    -0.58751     0.76844
   Rotational Symmetry Number is   1
   The Molecule is an Asymmetric Top
   Translational Enthalpy:        0.889 kcal/mol
   Rotational Enthalpy:           0.889 kcal/mol
   Vibrational Enthalpy:         55.351 kcal/mol
   gas constant (RT):             0.592 kcal/mol
   Translational Entropy:        43.184  cal/mol.K
   Rotational Entropy:           33.718  cal/mol.K
   Vibrational Entropy:          37.118  cal/mol.K

   Total Enthalpy:               57.721 kcal/mol
   Total Entropy:               114.020  cal/mol.K
 Total job time:  3648.34s(wall), 52099.47s(cpu) 
 Wed Jun 19 10:19:47 2024

        *************************************************************
        *                                                           *
        *  Thank you very much for using Q-Chem.  Have a nice day.  *
        *                                                           *
        *************************************************************


