
Running Job 1 of 1 FeOX3_L_3_sextet_b3lypD3bj_ccpvdz_pcmH2O_opt.in
qchem FeOX3_L_3_sextet_b3lypD3bj_ccpvdz_pcmH2O_opt.in_4124070.0 /data/scratch/FeOX3_L_3_sextet_b3lypD3bj_ccpvdz_pcmH2O_opt20240617181321/ 0
/opt/qchem/6.0.1/exe/qcprog.exe_s FeOX3_L_3_sextet_b3lypD3bj_ccpvdz_pcmH2O_opt.in_4124070.0 /data/scratch/FeOX3_L_3_sextet_b3lypD3bj_ccpvdz_pcmH2O_opt20240617181321/
                  Welcome to Q-Chem
     A Quantum Leap Into The Future Of Chemistry


 Q-Chem 6.0, Q-Chem, Inc., Pleasanton, CA (2022)

 E. Epifanovsky,  A. T. B. Gilbert,  Xintian Feng,  Joonho Lee,  Yuezhi Mao,  
 N. Mardirossian,  P. Pokhilko,  A. White,  M. Wormit,  M. P. Coons,  
 A. L. Dempwolff,  Zhengting Gan,  D. Hait,  P. R. Horn,  L. D. Jacobson,  
 I. Kaliman,  J. Kussmann,  A. W. Lange,  Ka Un Lao,  D. S. Levine,  Jie Liu,  
 S. C. McKenzie,  A. F. Morrison,  K. Nanda,  F. Plasser,  D. R. Rehn,  
 M. L. Vidal,  Zhi-Qiang You,  Ying Zhu,  B. Alam,  B. Albrecht,  
 A. Aldossary,  E. Alguire,  J. H. Andersen,  V. Athavale,  D. Barton,  
 K. Begam,  A. Behn,  N. Bellonzi,  Y. A. Bernard,  E. J. Berquist,  
 H. Burton,  A. Carreras,  K. Carter-Fenk,  Romit Chakraborty,  
 Chandrima Chakravarty,  Junhan Chen,  A. D. Chien,  K. D. Closser,  
 V. Cofer-Shabica,  L. Cunha,  S. Dasgupta,  Jia Deng,  M. de Wergifosse,  
 M. Diedenhofen,  Hainam Do,  S. Ehlert,  Po-Tung Fang,  S. Fatehi,  
 Qingguo Feng,  T. Friedhoff,  B. Ganoe,  J. Gayvert,  Qinghui Ge,  
 G. Gidofalvi,  M. Goldey,  J. Gomes,  C. Gonzalez-Espinoza,  S. Gulania,  
 A. Gunina,  J. A. Gyamfi,  M. W. D. Hanson-Heine,  P. H. P. Harbach,  
 A. W. Hauser,  M. F. Herbst,  M. Hernandez Vera,  M. Hodecker,  
 Z. C. Holden,  S. Houck,  Xunkun Huang,  Kerwin Hui,  B. C. Huynh,  
 K. Ikeda,  M. Ivanov,  Hyunjun Ji,  Zuxin Jin,  Hanjie Jiang,  B. Kaduk,  
 S. Kaehler,  R. Kang,  K. Khistyaev,  Jaehoon Kim,  Yongbin Kim,  
 P. Klunzinger,  Z. Koczor-Benda,  Joong Hoon Koh,  D. Kosenkov,  
 Saikiran Kotaru,  L. Koulias,  T. Kowalczyk,  C. M. Krauter,  K. Kue,  
 A. Kunitsa,  T. Kus,  A. Landau,  K. V. Lawler,  D. Lefrancois,  S. Lehtola,  
 Rain Li,  Shaozhi Li,  Yi-Pei Li,  Jiashu Liang,  M. Liebenthal,  
 Hung-Hsuan Lin,  You-Sheng Lin,  Fenglai Liu,  Kuan-Yu Liu,  
 M. Loipersberger,  A. Luenser,  C. Malbon,  A. Manjanath,  P. Manohar,  
 E. Mansoor,  S. F. Manzer,  Shan-Ping Mao,  A. V. Marenich,  T. Markovich,  
 S. Mason,  F. Matz,  S. A. Maurer,  P. F. McLaughlin,  M. F. S. J. Menger,  
 J.-M. Mewes,  S. A. Mewes,  P. Morgante,  Mohammad Mostafanejad,  
 J. W. Mullinax,  K. J. Oosterbaan,  G. Paran,  V. Parravicini,  
 Alexander C. Paul,  Suranjan K. Paul,  F. Pavosevic,  Zheng Pei,  S. Prager,  
 E. I. Proynov,  E. Ramos,  B. Rana,  A. E. Rask,  A. Rettig,  R. M. Richard,  
 F. Rob,  E. Rossomme,  T. Scheele,  M. Scheurer,  M. Schneider,  
 P. E. Schneider,  N. Sergueev,  S. M. Sharada,  Hengyuan Shen,  
 W. Skomorowski,  D. W. Small,  C. J. Stein,  Yingli Su,  Yu-Chuan Su,  
 E. J. Sundstrom,  Zhen Tao,  J. Thirman,  Hung-Yi Tsai,  T. Tsuchimochi,  
 N. M. Tubman,  C. Utku,  S. P. Veccham,  O. Vydrov,  J. Wenzel,  
 Jonathan Wong,  J. Witte,  A. Yamada,  Chou-Hsun Yang,  Kun Yao,  
 S. Yeganeh,  S. R. Yost,  A. Zech,  F. Zeller,  Igor Ying Zhang,  
 Xing Zhang,  Yu Zhang,  D. Zuev,  A. Aspuru-Guzik,  A. T. Bell,  
 N. A. Besley,  K. B. Bravaya,  B. R. Brooks,  D. Casanova,  Jeng-Da Chai,  
 Hsing-Ta Chen,  S. Coriani,  C. J. Cramer,  A. E. DePrince, III,  
 R. A. DiStasio Jr.,  A. Dreuw,  B. D. Dunietz,  T. R. Furlani,  
 W. A. Goddard III,  S. Grimme,  S. Hammes-Schiffer,  T. Head-Gordon,  
 W. J. Hehre,  Chao-Ping Hsu,  T.-C. Jagau,  Yousung Jung,  A. Klamt,  
 Jing Kong,  D. S. Lambrecht,  Xiangyuan Li,  WanZhen Liang,  N. J. Mayhall,  
 C. W. McCurdy,  J. B. Neaton,  T. Neudecker,  C. Ochsenfeld,  
 J. A. Parkhill,  R. Peverati,  V. A. Rassolov,  Haisheng Ren,  Yihan Shao,  
 L. V. Slipchenko,  R. P. Steele,  J. E. Subotnik,  A. J. W. Thom,  
 A. Tkatchenko,  D. G. Truhlar,  T. Van Voorhis,  Fan Wang,  
 T. A. Wesolowski,  K. B. Whaley,  H. L. Woodcock III,  P. M. Zimmerman,  
 S. Faraji,  P. M. W. Gill,  M. Head-Gordon,  J. M. Herbert,  A. I. Krylov

 Contributors to earlier versions of Q-Chem not listed above: 
 R. D. Adamson,  B. Austin,  R. Baer,  J. Baker,  G. J. O. Beran,  
 K. Brandhorst,  S. T. Brown,  E. F. C. Byrd,  Arup K. Chakraborty,  
 G. K. L. Chan,  Chun-Min Chang,  Yunqing Chen,  C.-L. Cheng,  
 Siu Hung Chien,  D. M. Chipman,  D. L. Crittenden,  H. Dachsel,  
 R. J. Doerksen,  A. D. Dutoi,  R. G. Edgar,  J. Fosso-Tande,  
 L. Fusti-Molnar,  D. Ghosh,  A. Ghysels,  A. Golubeva-Zadorozhnaya,  
 J. Gonthier,  M. S. Gordon,  S. R. Gwaltney,  G. Hawkins,  J. E. Herr,  
 A. Heyden,  S. Hirata,  E. G. Hohenstein,  G. Kedziora,  F. J. Keil,  
 C. Kelley,  Jihan Kim,  R. A. King,  R. Z. Khaliullin,  P. P. Korambath,  
 W. Kurlancheek,  A. Laurent,  A. M. Lee,  M. S. Lee,  S. V. Levchenko,  
 Ching Yeh Lin,  D. Liotard,  E. Livshits,  R. C. Lochan,  I. Lotan,  
 L. A. Martinez-Martinez,  P. E. Maslen,  N. Nair,  D. P. O'Neill,  
 D. Neuhauser,  E. Neuscamman,  C. M. Oana,  R. Olivares-Amaya,  R. Olson,  
 T. M. Perrine,  B. Peters,  P. A. Pieniazek,  A. Prociuk,  Y. M. Rhee,  
 J. Ritchie,  M. A. Rohrdanz,  E. Rosta,  N. J. Russ,  H. F. Schaefer III,  
 M. W. Schmidt,  N. E. Schultz,  S. Sharma,  N. Shenvi,  C. D. Sherrill,  
 A. C. Simmonett,  A. Sodt,  T. Stein,  D. Stuck,  K. S. Thanthiriwatte,  
 V. Vanovschi,  L. Vogt,  Tao Wang,  A. Warshel,  M. A. Watson,  
 C. F. Williams,  Q. Wu,  X. Xu,  Jun Yang,  W. Zhang,  Yan Zhao

   Please cite Q-Chem as follows:
  "Software for the frontiers of quantum chemistry:
   An overview of developments in the Q-Chem 5 package"
   J. Chem. Phys. 155, 084801 (2021)
   https://doi.org/10.1063/5.0055522 (open access)

 Q-Chem 6.0.2 for Intel X86 EM64T Linux

 Parts of Q-Chem use Armadillo 9.900.5 (Nocturnal Misbehaviour).
 http://arma.sourceforge.net/

 Q-Chem begins on Mon Jun 17 18:13:22 2024  

 Host: 
0

     Scratch files written to /data/scratch/FeOX3_L_3_sextet_b3lypD3bj_ccpvdz_pcmH2O_opt20240617181321//
 Dec722 |scratch|qcdevops|jenkins|workspace|build_RNUM 8907   
 Processing $rem in /opt/qchem/6.0.1/config/preferences:
 Processing $rem in /home/sgardner/.qchemrc:
 Symmetry turned off for PCM/SM12/SMD calculation

 Checking the input file for inconsistencies... 	...done.

--------------------------------------------------------------
User input:
--------------------------------------------------------------
$molecule
-3 6
Fe    1.3113462    0.9453961   -0.4126389
O    0.8886780   -0.8926292   -0.3747010
C    0.1577526   -1.1643384    0.7240616
C   -0.0359930   -0.0442343    1.6558017
O   -0.4084084    1.3023847   -1.1083259
O   -0.6701340   -0.1488906    2.6931019
O   -0.3039246   -2.2759278    0.9248402
O    1.6500975    2.8023077   -0.4673874
C    0.5198995    3.4662677   -0.7738251
C   -0.6343374    2.6279939   -1.1165263
O    0.5695741    1.1077596    1.3144440
O   -1.7193390    3.0898709   -1.4301520
O    0.4763821    4.6856791   -0.7799310
O    2.0441936    0.7765605   -2.1446760
O    3.0290862    0.5958636    0.2896719
C    3.3664693    0.5381171   -2.0676054
C    3.9085891    0.4028214   -0.7108685
O    4.0526510    0.4122375   -3.0690541
O    5.0850405    0.1641375   -0.4904623
$end

$rem
BASIS  =  gen
DFT_D  =  D3_BJ
GUI  =  2
JOB_TYPE  =  Optimization
METHOD  =  B3LYP
SCF_CONVERGENCE  =  8
SOLVENT_METHOD  =  PCM
GEOM_OPT_MAX_CYCLES = 200
MEM_TOTAL  =  30000
$end

$pcm
THEORY  CPCM
$end

$solvent
DIELECTRIC  78.39
$end

$van_der_waals
26   2.44
$end

!----------------------------------------------------------------------
! Basis Set Exchange
! Basis set: cc-pVDZ
!----------------------------------------------------------------------

$rem
BASIS GEN
PURECART 11
$end

$basis
H     0
S   4   1.00
1.301000D+01           1.968500D-02
1.962000D+00           1.379770D-01
4.446000D-01           4.781480D-01
1.220000D-01           5.012400D-01
S   1   1.00
1.220000D-01           1.000000D+00
P   1   1.00
7.270000D-01           1.0000000
****
C     0
S   9   1.00
6.665000D+03           6.920000D-04
1.000000D+03           5.329000D-03
2.280000D+02           2.707700D-02
6.471000D+01           1.017180D-01
2.106000D+01           2.747400D-01
7.495000D+00           4.485640D-01
2.797000D+00           2.850740D-01
5.215000D-01           1.520400D-02
1.596000D-01          -3.191000D-03
S   9   1.00
6.665000D+03          -1.460000D-04
1.000000D+03          -1.154000D-03
2.280000D+02          -5.725000D-03
6.471000D+01          -2.331200D-02
2.106000D+01          -6.395500D-02
7.495000D+00          -1.499810D-01
2.797000D+00          -1.272620D-01
5.215000D-01           5.445290D-01
1.596000D-01           5.804960D-01
S   1   1.00
1.596000D-01           1.000000D+00
P   4   1.00
9.439000D+00           3.810900D-02
2.002000D+00           2.094800D-01
5.456000D-01           5.085570D-01
1.517000D-01           4.688420D-01
P   1   1.00
1.517000D-01           1.000000D+00
D   1   1.00
5.500000D-01           1.0000000
****
N     0
S   9   1.00
9.046000D+03           7.000000D-04
1.357000D+03           5.389000D-03
3.093000D+02           2.740600D-02
8.773000D+01           1.032070D-01
2.856000D+01           2.787230D-01
1.021000D+01           4.485400D-01
3.838000D+00           2.782380D-01
7.466000D-01           1.544000D-02
2.248000D-01          -2.864000D-03
S   9   1.00
9.046000D+03          -1.530000D-04
1.357000D+03          -1.208000D-03
3.093000D+02          -5.992000D-03
8.773000D+01          -2.454400D-02
2.856000D+01          -6.745900D-02
1.021000D+01          -1.580780D-01
3.838000D+00          -1.218310D-01
7.466000D-01           5.490030D-01
2.248000D-01           5.788150D-01
S   1   1.00
2.248000D-01           1.000000D+00
P   4   1.00
1.355000D+01           3.991900D-02
2.917000D+00           2.171690D-01
7.973000D-01           5.103190D-01
2.185000D-01           4.622140D-01
P   1   1.00
2.185000D-01           1.000000D+00
D   1   1.00
8.170000D-01           1.0000000
****
O     0
S   9   1.00
1.172000D+04           7.100000D-04
1.759000D+03           5.470000D-03
4.008000D+02           2.783700D-02
1.137000D+02           1.048000D-01
3.703000D+01           2.830620D-01
1.327000D+01           4.487190D-01
5.025000D+00           2.709520D-01
1.013000D+00           1.545800D-02
3.023000D-01          -2.585000D-03
S   9   1.00
1.172000D+04          -1.600000D-04
1.759000D+03          -1.263000D-03
4.008000D+02          -6.267000D-03
1.137000D+02          -2.571600D-02
3.703000D+01          -7.092400D-02
1.327000D+01          -1.654110D-01
5.025000D+00          -1.169550D-01
1.013000D+00           5.573680D-01
3.023000D-01           5.727590D-01
S   1   1.00
3.023000D-01           1.000000D+00
P   4   1.00
1.770000D+01           4.301800D-02
3.854000D+00           2.289130D-01
1.046000D+00           5.087280D-01
2.753000D-01           4.605310D-01
P   1   1.00
2.753000D-01           1.000000D+00
D   1   1.00
1.185000D+00           1.0000000
****
Fe     0
S   20   1.00
4.316265D+06           8.048803D-06
6.463424D+05           6.258306D-05
1.470897D+05           3.290239D-04
4.166152D+04           1.387355D-03
1.359077D+04           5.023256D-03
4.905750D+03           1.610140D-02
1.912746D+03           4.590034D-02
7.926043D+02           1.136154D-01
3.448065D+02           2.283869D-01
1.558999D+02           3.221159D-01
7.223091D+01           2.383661D-01
3.272506D+01           7.404667D-02
1.566762D+01           9.214197D-02
7.503483D+00           9.339790D-02
3.312223D+00           1.573965D-02
1.558471D+00          -4.186682D-04
6.839140D-01           5.376318D-05
1.467570D-01          -3.816654D-05
7.058300D-02           4.319603D-05
3.144900D-02          -3.401019D-06
S   20   1.00
4.316265D+06          -4.155954D-06
6.463424D+05          -3.231401D-05
1.470897D+05          -1.699525D-04
4.166152D+04          -7.171369D-04
1.359077D+04          -2.603625D-03
4.905750D+03          -8.399109D-03
1.912746D+03          -2.434109D-02
7.926043D+02          -6.251948D-02
3.448065D+02          -1.365929D-01
1.558999D+02          -2.312707D-01
7.223091D+01          -2.383734D-01
3.272506D+01           3.123837D-02
1.566762D+01           5.086818D-01
7.503483D+00           4.987695D-01
3.312223D+00           9.033552D-02
1.558471D+00          -6.005337D-03
6.839140D-01           2.312454D-04
1.467570D-01          -5.643680D-04
7.058300D-02           4.992260D-04
3.144900D-02          -1.015293D-04
S   20   1.00
4.316265D+06           9.532178D-07
6.463424D+05           7.414605D-06
1.470897D+05           3.898393D-05
4.166152D+04           1.647152D-04
1.359077D+04           5.985980D-04
4.905750D+03           1.942390D-03
1.912746D+03           5.687237D-03
7.926043D+02           1.501329D-02
3.448065D+02           3.452455D-02
1.558999D+02           6.495820D-02
7.223091D+01           7.716194D-02
3.272506D+01          -1.873411D-02
1.566762D+01          -3.009185D-01
7.503483D+00          -4.554661D-01
3.312223D+00           1.286463D-01
1.558471D+00           7.183316D-01
6.839140D-01           4.051743D-01
1.467570D-01           2.168227D-02
7.058300D-02          -8.343566D-03
3.144900D-02           3.658979D-03
S   20   1.00
4.316265D+06          -2.063008D-07
6.463424D+05          -1.604169D-06
1.470897D+05          -8.438437D-06
4.166152D+04          -3.563151D-05
1.359077D+04          -1.295998D-04
4.905750D+03          -4.201534D-04
1.912746D+03          -1.231954D-03
7.926043D+02          -3.248922D-03
3.448065D+02          -7.493717D-03
1.558999D+02          -1.410102D-02
7.223091D+01          -1.691600D-02
3.272506D+01           4.218996D-03
1.566762D+01           6.833810D-02
7.503483D+00           1.098201D-01
3.312223D+00          -4.009005D-02
1.558471D+00          -2.174739D-01
6.839140D-01          -2.465135D-01
1.467570D-01           2.731435D-01
7.058300D-02           5.748321D-01
3.144900D-02           3.012713D-01
S   20   1.00
4.316265D+06          -4.009367D-07
6.463424D+05          -3.189255D-06
1.470897D+05          -1.623079D-05
4.166152D+04          -7.157920D-05
1.359077D+04          -2.463958D-04
4.905750D+03          -8.544907D-04
1.912746D+03          -2.307593D-03
7.926043D+02          -6.728292D-03
3.448065D+02          -1.366165D-02
1.558999D+02          -3.062240D-02
7.223091D+01          -2.631137D-02
3.272506D+01          -9.760183D-03
1.566762D+01           1.801906D-01
7.503483D+00           1.529634D-01
3.312223D+00           5.505413D-02
1.558471D+00          -9.551364D-01
6.839140D-01           2.586813D-01
1.467570D-01           1.834049D+00
7.058300D-02          -9.333240D-01
3.144900D-02          -6.981605D-01
S   1   1.00
3.144900D-02           1.000000D+00
P   16   1.00
1.774569D+04           4.100000D-05
4.200721D+03           3.690000D-04
1.364429D+03           2.129000D-03
5.220806D+02           9.369000D-03
2.214595D+02           3.309700D-02
1.009096D+02           9.443100D-02
4.840115D+01           2.080770D-01
2.398536D+01           3.323330D-01
1.218250D+01           3.329870D-01
6.242298D+00           1.568430D-01
3.110944D+00           2.154900D-02
1.509958D+00          -2.095000D-03
7.108450D-01          -1.739000D-03
2.731900D-01          -3.000000D-04
1.042330D-01           2.900000D-05
3.829100D-02          -1.100000D-05
P   16   1.00
1.774569D+04          -1.500000D-05
4.200721D+03          -1.300000D-04
1.364429D+03          -7.510000D-04
5.220806D+02          -3.329000D-03
2.214595D+02          -1.191200D-02
1.009096D+02          -3.493300D-02
4.840115D+01          -7.998900D-02
2.398536D+01          -1.346360D-01
1.218250D+01          -1.385980D-01
6.242298D+00           3.027800D-02
3.110944D+00           3.332160D-01
1.509958D+00           4.561530D-01
7.108450D-01           2.850510D-01
2.731900D-01           4.614400D-02
1.042330D-01          -3.249000D-03
3.829100D-02           1.357000D-03
P   16   1.00
1.774569D+04           5.000000D-06
4.200721D+03           4.200000D-05
1.364429D+03           2.410000D-04
5.220806D+02           1.085000D-03
2.214595D+02           3.831000D-03
1.009096D+02           1.142300D-02
4.840115D+01           2.579200D-02
2.398536D+01           4.481800D-02
1.218250D+01           4.459800D-02
6.242298D+00          -1.117700D-02
3.110944D+00          -1.381340D-01
1.509958D+00          -1.882850D-01
7.108450D-01          -1.073990D-01
2.731900D-01           4.448630D-01
1.042330D-01           6.402390D-01
3.829100D-02           6.445700D-02
P   16   1.00
1.774569D+04           3.000000D-06
4.200721D+03           2.900000D-05
1.364429D+03           1.650000D-04
5.220806D+02           7.340000D-04
2.214595D+02           2.626000D-03
1.009096D+02           7.725000D-03
4.840115D+01           1.773300D-02
2.398536D+01           3.005500D-02
1.218250D+01           3.109400D-02
6.242298D+00          -1.004800D-02
3.110944D+00          -8.830600D-02
1.509958D+00          -1.298240D-01
7.108450D-01          -7.693700D-02
2.731900D-01           2.126610D-01
1.042330D-01           5.730610D-01
3.829100D-02           3.696510D-01
P   1   1.00
3.829100D-02           1.000000D+00
D   8   1.00
1.133440D+02           3.530000D-03
3.364140D+01           2.578400D-02
1.233100D+01           9.911900D-02
4.994780D+00           2.390730D-01
2.072800D+00           3.571990D-01
8.307530D-01           3.621880D-01
3.091780D-01           2.364610D-01
1.001300D-01           6.011800D-02
D   8   1.00
1.133440D+02          -3.890000D-03
3.364140D+01          -2.844200D-02
1.233100D+01          -1.124290D-01
4.994780D+00          -2.742570D-01
2.072800D+00          -3.155460D-01
8.307530D-01           5.710900D-02
3.091780D-01           5.636040D-01
1.001300D-01           3.846370D-01
D   1   1.00
1.001300D-01           1.000000D+00
F   2   1.00
3.224300D+00           4.222490D-01
7.758000D-01           7.714680D-01
****
$end


--------------------------------------------------------------
 Adding empirical dispersion correction 
 ----------------------------------------------------------------
 Doing -D3(BJ) with
 s6  =   1.00000
 s8  =   1.98890
 a1  =   0.39810
 a2  =   4.42110
 -D3 energy without 3body term =     -0.0421363887 hartrees
 ----------------------------------------------------------------
             Standard Nuclear Orientation (Angstroms)
    I     Atom           X                Y                Z
 ----------------------------------------------------------------
    1      Fe      1.3113462000     0.9453961000    -0.4126389000
    2      O       0.8886780000    -0.8926292000    -0.3747010000
    3      C       0.1577526000    -1.1643384000     0.7240616000
    4      C      -0.0359930000    -0.0442343000     1.6558017000
    5      O      -0.4084084000     1.3023847000    -1.1083259000
    6      O      -0.6701340000    -0.1488906000     2.6931019000
    7      O      -0.3039246000    -2.2759278000     0.9248402000
    8      O       1.6500975000     2.8023077000    -0.4673874000
    9      C       0.5198995000     3.4662677000    -0.7738251000
   10      C      -0.6343374000     2.6279939000    -1.1165263000
   11      O       0.5695741000     1.1077596000     1.3144440000
   12      O      -1.7193390000     3.0898709000    -1.4301520000
   13      O       0.4763821000     4.6856791000    -0.7799310000
   14      O       2.0441936000     0.7765605000    -2.1446760000
   15      O       3.0290862000     0.5958636000     0.2896719000
   16      C       3.3664693000     0.5381171000    -2.0676054000
   17      C       3.9085891000     0.4028214000    -0.7108685000
   18      O       4.0526510000     0.4122375000    -3.0690541000
   19      O       5.0850405000     0.1641375000    -0.4904623000
 ----------------------------------------------------------------
 Nuclear Repulsion Energy =        2039.59006101 hartrees
 There are       83 alpha and       78 beta electrons
 Requested basis set is non-standard
 There are 123 shells and 295 basis functions

 Total QAlloc Memory Limit  30000 MB
 Mega-Array Size       188 MB
 MEM_STATIC part       192 MB

 -----------------------------------------------------------------------
                STARTING GEOMETRY OPTIMIZER USING LIBOPT3
                by Peter F. McLaughlin, Yu Zhang, Evgeny Epifanovsky
 -----------------------------------------------------------------------

              Initial Energy and Gradient Calculation
   -- Checking Topology for Ill-Behaving Coordinates --

 -------------------------------------------
   Coordinate       |  Removed | Additions 
 -------------------------------------------
	Bonds                     0          0
	Angles                    3          0
	Torsions                  6          6
	Co-Linear Type5s          0          6
	Co-Linear Type6s          0          6
 -------------------------------------------

 ** Ill-Behaving Topology Definitions (No action needed.) **

  Ill-Defined Angles Removed: 
   2   1   8,   5   1  15,  11   1  14

  Ill-Defined Torsions Removed: 
   2   1   8   9,   3   2   1   8,   4  11   1  14,   5   1  15  17,  10   5   1  15
  11   1  14  16

     Done Checking Topology
 Adding empirical dispersion correction 
 ----------------------------------------------------------------
 Doing -D3(BJ) with
 s6  =   1.00000
 s8  =   1.98890
 a1  =   0.39810
 a2  =   4.42110
 -D3 energy without 3body term =     -0.0421363887 hartrees
 ----------------------------------------------------------------
             Standard Nuclear Orientation (Angstroms)
    I     Atom           X                Y                Z
 ----------------------------------------------------------------
    1      Fe      1.3113462000     0.9453961000    -0.4126389000
    2      O       0.8886780000    -0.8926292000    -0.3747010000
    3      C       0.1577526000    -1.1643384000     0.7240616000
    4      C      -0.0359930000    -0.0442343000     1.6558017000
    5      O      -0.4084084000     1.3023847000    -1.1083259000
    6      O      -0.6701340000    -0.1488906000     2.6931019000
    7      O      -0.3039246000    -2.2759278000     0.9248402000
    8      O       1.6500975000     2.8023077000    -0.4673874000
    9      C       0.5198995000     3.4662677000    -0.7738251000
   10      C      -0.6343374000     2.6279939000    -1.1165263000
   11      O       0.5695741000     1.1077596000     1.3144440000
   12      O      -1.7193390000     3.0898709000    -1.4301520000
   13      O       0.4763821000     4.6856791000    -0.7799310000
   14      O       2.0441936000     0.7765605000    -2.1446760000
   15      O       3.0290862000     0.5958636000     0.2896719000
   16      C       3.3664693000     0.5381171000    -2.0676054000
   17      C       3.9085891000     0.4028214000    -0.7108685000
   18      O       4.0526510000     0.4122375000    -3.0690541000
   19      O       5.0850405000     0.1641375000    -0.4904623000
 ----------------------------------------------------------------
 Nuclear Repulsion Energy =        2039.59006101 hartrees
 There are       83 alpha and       78 beta electrons
 Using C-PCM dielectric factor f(eps) = (eps-1)/eps = 0.987243
No default van der Waals radius is available for Z = 26
	Found R = 2.4400 A in the $van_der_waals section
 Discretize the solute cavity surface with Lebedev spheres
	Using 110 Lebedev grid points for each H atom
	Using 194 Lebedev grid points for other atoms
	Atomic van der Waals radii (Bondi set) will be scaled by 1.20
 Using smooth SwiG surface discretization
 Remove points where switching function is < 1.0e-08
 Keep 1590 surface tesserae and discard 2096 interior tesserae
 Molecular Surface Area = 250.052 Angst**2

 Requested basis set is non-standard
 There are 123 shells and 295 basis functions
 A cutoff of  1.0D-12 yielded   7237 shell pairs
 There are     40711 function pairs (     47255 Cartesian)
 Smallest overlap matrix eigenvalue = 2.49E-04

 Scale SEOQF with 1.000000e-01/1.000000e-01/1.000000e-01

 Standard Electronic Orientation quadrupole field applied
 Nucleus-field energy     =     0.0000000331 hartrees
 ================ Generating on-the-fly SAD Guess ================
 Attempting to make child job directory: /data/scratch/FeOX3_L_3_sextet_b3lypD3bj_ccpvdz_pcmH2O_opt20240617181321//Frg1/
 Attempting to make child job directory: /data/scratch/FeOX3_L_3_sextet_b3lypD3bj_ccpvdz_pcmH2O_opt20240617181321//Frg2/
 Attempting to make child job directory: /data/scratch/FeOX3_L_3_sextet_b3lypD3bj_ccpvdz_pcmH2O_opt20240617181321//Frg3/
 Creating input file /data/scratch/FeOX3_L_3_sextet_b3lypD3bj_ccpvdz_pcmH2O_opt20240617181321/Frg1.input
 using default PutDataFrgm: nothing
 calling putenv with: QCSCRATCH=/data/scratch/FeOX3_L_3_sextet_b3lypD3bj_ccpvdz_pcmH2O_opt20240617181321/ 
 Spawning Job For Fragment 0
 Done Job For Fragment 0
 calling putenv with: QCSCRATCH=/data/scratch 
 calling putenv with: QCTHREADS=20 
 Creating input file /data/scratch/FeOX3_L_3_sextet_b3lypD3bj_ccpvdz_pcmH2O_opt20240617181321/Frg2.input
 using default PutDataFrgm: nothing
 calling putenv with: QCSCRATCH=/data/scratch/FeOX3_L_3_sextet_b3lypD3bj_ccpvdz_pcmH2O_opt20240617181321/ 
 Spawning Job For Fragment 1
 Done Job For Fragment 1
 calling putenv with: QCSCRATCH=/data/scratch 
 calling putenv with: QCTHREADS=20 
 Creating input file /data/scratch/FeOX3_L_3_sextet_b3lypD3bj_ccpvdz_pcmH2O_opt20240617181321/Frg3.input
 using default PutDataFrgm: nothing
 calling putenv with: QCSCRATCH=/data/scratch/FeOX3_L_3_sextet_b3lypD3bj_ccpvdz_pcmH2O_opt20240617181321/ 
 Spawning Job For Fragment 2
 Done Job For Fragment 2
 calling putenv with: QCSCRATCH=/data/scratch 
 calling putenv with: QCTHREADS=20 
 Time for running child jobs:  CPU 0.01 s  wall 68.89 s
 ============= Method Specific SAD Guess Constructed =============
 Guess from on-the-fly superposition of atomic densities
 Warning: Energy on first SCF cycle will be non-variational

 -----------------------------------------------------------------------
  General SCF calculation program by
  Eric Jon Sundstrom, Paul Horn, Yuezhi Mao, Dmitri Zuev, Alec White,
  David Stuck, Shaama M.S., Shane Yost, Joonho Lee, David Small,
  Daniel Levine, Susi Lehtola, Hugh Burton, Evgeny Epifanovsky,
  Bang C. Huynh
 -----------------------------------------------------------------------
 Exchange:     0.2000 Hartree-Fock + 0.0800 Slater + 0.7200 B88
 Correlation:  0.1900 VWN1RPA + 0.8100 LYP
 Using SG-1 standard quadrature grid
 Dispersion:   Grimme D3
 using 20 threads for integral computing
 -------------------------------------------------------
 OpenMP Integral computing Module                
 Release: version 1.0, May 2013, Q-Chem Inc. Pittsburgh 
 -------------------------------------------------------
 C-PCM solvent model [f = (eps-1)/eps], solve by matrix inversion
 A unrestricted SCF calculation will be
 performed using DIIS
 SCF converges when DIIS error is below 1.0e-08
 ---------------------------------------
  Cycle       Energy         DIIS error
 ---------------------------------------
    1   -2400.8982669222      2.51e-02  
    2   -2395.2023344547      4.44e-03  
    3   -2393.6985965251      8.56e-03  
    4   -2395.7275181362      2.07e-03  
    5   -2395.8433302041      4.15e-04  
    6   -2395.8478455844      2.64e-04  
    7   -2395.8496880143      1.58e-04  
    8   -2395.8505359940      3.01e-05  
    9   -2395.8505867702      9.55e-06  
   10   -2395.8505930851      3.26e-06  
   11   -2395.8505936398      3.31e-06  
   12   -2395.8505941061      8.43e-07  
   13   -2395.8505941692      4.25e-07  
   14   -2395.8505941791      2.14e-07  
   15   -2395.8505941839      9.83e-08  
   16   -2395.8505941843      7.37e-08  
   17   -2395.8505941846      1.69e-08  
   18   -2395.8505941846      9.84e-09  Convergence criterion met
 ---------------------------------------
 SCF time:   CPU 3769.92s  wall 233.00s 
<S^2> =          8.754731441

************** Final PCM Free Energy Summary **************
 G_electrostatic  =      -0.55694102 hartree =    -349.48576480 kcal/mol
 G_cavitation     =       0.00000000 hartree =       0.00000000 kcal/mol
 G_dispersion     =       0.00000000 hartree =       0.00000000 kcal/mol
 G_repulsion      =       0.00000000 hartree =       0.00000000 kcal/mol
 --------------------------------------------------
 Non-electrostatic Free Energy =       0.00000000 hartree =       0.00000000 kcal/mol
 Total                         =      -0.55694102 hartree =    -349.48576480 kcal/mol
 --------------------------------------------------
 SCF Energy (H0 + V/2)                       =   -2395.85059418 
 Solute Internal Energy (H0)                 =   -2395.29365316 
 Total Free Energy (H0 + V/2 + non-elec)     =   -2395.85059418 hartree
                                             = -1503418.93895179 kcal/mol
***********************************************************

 SCF   energy in the final basis set =    -2395.8505941846
 Total energy in the final basis set =    -2395.8505941846
 
 --------------------------------------------------------------
 
                    Orbital Energies (a.u.)
 --------------------------------------------------------------
 
 Alpha MOs
 -- Occupied --
******** -30.0843 -25.9356 -25.9347 -25.9346 -19.0977 -19.0976 -19.0974
-19.0972 -19.0971 -19.0970 -19.0969 -19.0960 -19.0960 -19.0959 -19.0958
-19.0949 -10.2769 -10.2769 -10.2766 -10.2763 -10.2762 -10.2757  -3.5789
 -2.3541  -2.3540  -2.3534  -1.0584  -1.0543  -1.0536  -1.0213  -1.0211
 -1.0207  -0.9688  -0.9562  -0.9550  -0.9334  -0.9333  -0.9321  -0.6432
 -0.6427  -0.6412  -0.5061  -0.5058  -0.5036  -0.4944  -0.4764  -0.4744
 -0.4475  -0.4470  -0.4414  -0.4300  -0.4289  -0.4258  -0.4115  -0.4114
 -0.4044  -0.3929  -0.3802  -0.3762  -0.3634  -0.3621  -0.3548  -0.3531
 -0.3501  -0.3147  -0.3086  -0.3014  -0.3006  -0.2760  -0.2753  -0.2631
 -0.2576  -0.2562  -0.2555  -0.2499  -0.2493  -0.2403  -0.2380  -0.2344
 -0.2336  -0.1694  -0.1692
 -- Virtual --
 -0.0300  -0.0236  -0.0197   0.0491   0.0699   0.0740   0.0756   0.1354
  0.1406   0.1412   0.2502   0.2616   0.2624   0.2765   0.2784   0.2845
  0.3163   0.3275   0.3351   0.3563   0.3645   0.3713   0.3731   0.3928
  0.4023   0.4079   0.4169   0.4218   0.4349   0.4550   0.4568   0.5171
  0.5273   0.5309   0.5528   0.5688   0.5699   0.5770   0.5838   0.5856
  0.5956   0.6002   0.6019   0.6133   0.6195   0.6293   0.6430   0.6591
  0.6606   0.6983   0.7053   0.7122   0.7450   0.8207   0.8209   0.8235
  0.8707   0.8795   0.8871   0.9220   0.9251   0.9654   0.9728   0.9881
  0.9919   1.0101   1.0156   1.0178   1.0182   1.0219   1.0316   1.0434
  1.0503   1.0530   1.0632   1.0728   1.0914   1.0948   1.0992   1.1154
  1.1353   1.1416   1.1535   1.1756   1.1791   1.1819   1.2090   1.2186
  1.2294   1.2604   1.2745   1.2885   1.3004   1.3338   1.3414   1.3647
  1.3677   1.3931   1.4344   1.4547   1.4599   1.4686   1.4817   1.4858
  1.5464   1.5514   1.5901   1.6020   1.6188   1.6260   1.6303   1.6509
  1.6580   1.6683   1.6781   1.7056   1.7273   1.7393   1.7700   1.7735
  1.7819   1.8219   1.8258   1.8640   1.8714   1.8809   1.9552   1.9662
  1.9810   1.9876   2.0255   2.0325   2.0395   2.0427   2.1014   2.1070
  2.1171   2.1466   2.1502   2.1785   2.2353   2.3655   2.4432   2.4537
  2.4802   2.5873   2.5913   2.6305   2.6364   2.6370   2.6395   2.6472
  2.6538   2.6628   2.6650   2.6668   2.6766   2.7089   2.7199   2.7276
  2.7385   2.7395   2.7409   2.7637   2.8397   2.8511   2.8837   2.8903
  2.9079   2.9137   2.9391   2.9502   2.9795   2.9945   3.0031   3.0127
  3.0380   3.0463   3.0544   3.0571   3.1051   3.1268   3.1722   3.2157
  3.2245   3.2315   3.2524   3.2579   3.2622   3.2922   3.2972   3.3126
  3.3192   3.3222   3.3857   3.4017   3.4117   3.4280   3.4558   3.4630
  3.4911   3.4960   3.5054   3.5982   3.6125   3.6187   3.6464   3.6789
  3.6816   3.7725   3.7795   3.7978
 
 Beta MOs
 -- Occupied --
******** -29.9896 -25.8563 -25.8559 -25.8559 -19.0972 -19.0972 -19.0970
-19.0967 -19.0966 -19.0965 -19.0930 -19.0921 -19.0921 -19.0920 -19.0919
-19.0911 -10.2769 -10.2769 -10.2766 -10.2763 -10.2762 -10.2757  -3.3591
 -2.1237  -2.1231  -2.1220  -1.0555  -1.0517  -1.0511  -1.0186  -1.0183
 -1.0181  -0.9630  -0.9498  -0.9486  -0.9260  -0.9258  -0.9251  -0.6413
 -0.6407  -0.6394  -0.4940  -0.4883  -0.4826  -0.4820  -0.4630  -0.4608
 -0.4382  -0.4377  -0.4330  -0.4269  -0.4260  -0.4236  -0.4019  -0.3987
 -0.3987  -0.3689  -0.3599  -0.3585  -0.3191  -0.3183  -0.3126  -0.2997
 -0.2892  -0.2866  -0.2832  -0.2800  -0.2729  -0.2565  -0.2524  -0.2502
 -0.2430  -0.2422  -0.2376  -0.2327  -0.2321  -0.2312
 -- Virtual --
 -0.0419  -0.0400  -0.0317  -0.0277  -0.0130  -0.0056   0.0501   0.0510
  0.0513   0.0707   0.0754   0.0771   0.1408   0.1432   0.1438   0.2542
  0.2638   0.2645   0.2787   0.2810   0.2871   0.3219   0.3308   0.3380
  0.3608   0.3674   0.3764   0.3810   0.3998   0.4101   0.4131   0.4253
  0.4306   0.4521   0.4594   0.4624   0.5187   0.5319   0.5340   0.5570
  0.5699   0.5730   0.5780   0.5854   0.5872   0.5994   0.6015   0.6035
  0.6158   0.6212   0.6299   0.6440   0.6631   0.6654   0.7016   0.7087
  0.7136   0.7629   0.8330   0.8353   0.8604   0.8727   0.8896   0.8962
  0.9303   0.9346   0.9675   0.9792   0.9925   0.9980   1.0128   1.0179
  1.0197   1.0201   1.0247   1.0376   1.0494   1.0552   1.0565   1.0684
  1.0753   1.0927   1.0978   1.1018   1.1182   1.1386   1.1457   1.1669
  1.1786   1.1812   1.1843   1.2141   1.2244   1.2614   1.2636   1.2910
  1.2991   1.3049   1.3486   1.3521   1.3740   1.3782   1.4063   1.4443
  1.4658   1.4732   1.4748   1.4905   1.5014   1.5571   1.5616   1.6139
  1.6214   1.6350   1.6434   1.6452   1.6640   1.6785   1.6953   1.7034
  1.7240   1.7359   1.7536   1.7774   1.7808   1.8038   1.8361   1.8417
  1.8666   1.8750   1.8836   1.9671   1.9688   1.9823   1.9909   2.0275
  2.0403   2.0505   2.0522   2.1071   2.1154   2.1228   2.1607   2.1636
  2.1932   2.2476   2.3780   2.4577   2.4687   2.4904   2.6074   2.6078
  2.6398   2.6400   2.6412   2.6526   2.6625   2.6646   2.6670   2.6712
  2.6740   2.6888   2.7143   2.7283   2.7393   2.7411   2.7425   2.7428
  2.7793   2.8499   2.8589   2.8981   2.9034   2.9233   2.9275   2.9509
  2.9616   3.0027   3.0112   3.0220   3.0446   3.0457   3.0482   3.0624
  3.1246   3.1668   3.1855   3.2198   3.2360   3.2460   3.2471   3.2840
  3.2843   3.2907   3.3053   3.3076   3.3195   3.3375   3.3433   3.3986
  3.4303   3.4337   3.4405   3.4665   3.4725   3.4943   3.5002   3.5126
  3.6012   3.6198   3.6271   3.6598   3.6904   3.6925   3.8633   3.8699
  3.8876
 --------------------------------------------------------------
 
          Ground-State Mulliken Net Atomic Charges

     Atom                 Charge (a.u.)    Spin (a.u.)
  --------------------------------------------------------
      1 Fe                    0.509353       4.231711
      2 O                    -0.407217       0.109300
      3 C                     0.136043       0.004767
      4 C                     0.142161       0.005444
      5 O                    -0.405505       0.107076
      6 O                    -0.315249       0.015002
      7 O                    -0.315198       0.014670
      8 O                    -0.407199       0.108711
      9 C                     0.135749       0.004808
     10 C                     0.140980       0.005197
     11 O                    -0.407149       0.107099
     12 O                    -0.316216       0.015066
     13 O                    -0.316054       0.014501
     14 O                    -0.406610       0.108202
     15 O                    -0.407807       0.107762
     16 C                     0.135249       0.004943
     17 C                     0.135097       0.004980
     18 O                    -0.315647       0.015179
     19 O                    -0.314780       0.015584
  --------------------------------------------------------
  Sum of atomic charges =    -3.000000
  Sum of spin   charges =     5.000000

 -----------------------------------------------------------------
                    Cartesian Multipole Moments
 -----------------------------------------------------------------
    Charge (ESU x 10^10)
               -14.4096
    Dipole Moment (Debye)
         X     -17.4596      Y     -14.0239      Z       5.5688
       Tot      23.0763
    Quadrupole Moments (Debye-Ang)
        XX    -211.9878     XY      -7.9307     YY    -193.0712
        XZ      25.1012     YZ      18.1414     ZZ    -164.7988
    Octopole Moments (Debye-Ang^2)
       XXX    -809.6674    XXY    -168.8081    XYY    -147.9630
       YYY    -579.6345    XXZ     157.9254    XYZ      -8.8981
       YYZ      87.3809    XZZ    -212.3863    YZZ    -137.2883
       ZZZ     173.2199
    Hexadecapole Moments (Debye-Ang^3)
      XXXX   -5198.4128   XXXY    -306.5984   XXYY   -1083.1300
      XYYY    -308.3733   YYYY   -3815.3224   XXXZ     922.7148
      XXYZ     197.6561   XYYZ     130.5305   YYYZ     633.0083
      XXZZ   -1149.3791   XYZZ    -105.9114   YYZZ    -721.6793
      XZZZ     786.4424   YZZZ     435.4248   ZZZZ   -1779.3333
 -----------------------------------------------------------------
 Calculating analytic gradient of the SCF energy
 Gradient of SCF Energy
            1           2           3           4           5           6
    1   0.0027488  -0.0260147  -0.0745929  -0.1030756   0.0513303   0.1349437
    2  -0.0021697   0.0543532  -0.1831676  -0.0244621   0.0640998   0.0173660
    3  -0.0019560   0.0606148   0.0387776   0.1732215   0.0230984  -0.2260759
            7           8           9          10          11          12
    1   0.0962869  -0.0782206  -0.0107387  -0.1761572  -0.0054366   0.2371195
    2   0.2430391  -0.0311634   0.2000241   0.0830931  -0.0725166  -0.0948911
    3  -0.0385302  -0.0147765  -0.0065875  -0.0553194  -0.0442238   0.0700295
           13          14          15          16          17          18
    1   0.0029692   0.0475958  -0.0149751   0.1171986   0.1931980  -0.1427388
    2  -0.2647806  -0.0080200   0.0032399  -0.0218158  -0.0399454   0.0257504
    3   0.0004418   0.0699188  -0.0839326  -0.1609562   0.0308555   0.2190666
           19
    1  -0.2514408
    2   0.0519667
    3  -0.0536663
 Max gradient component =       2.648E-01
 RMS gradient           =       1.111E-01
 Computing fast CPCM-SWIG gradient
 Updating gradient with PCM contributions...
 -- total gradient after adding PCM contribution --
---------------------------------------------------
  Atom         X              Y              Z     
---------------------------------------------------
   1      -0.005525      -0.000125       0.002498
   2       0.034236       0.042098      -0.039903
   3      -0.029423       0.030226       0.067190
   4      -0.016587      -0.073414      -0.023844
   5       0.037787      -0.052495       0.017890
   6       0.011816       0.011745      -0.010149
   7       0.010387       0.010980      -0.012195
   8       0.034280      -0.056013       0.009218
   9      -0.076666      -0.008690      -0.021505
  10       0.031679       0.071635       0.016696
  11       0.029543       0.038177      -0.045806
  12       0.011108      -0.016654       0.001071
  13       0.011167      -0.015921       0.002863
  14      -0.058624       0.013804       0.027284
  15      -0.059737       0.011182       0.022608
  16       0.062535      -0.006733       0.050822
  17       0.006912      -0.006712      -0.079367
  18      -0.018247       0.001791       0.006799
  19      -0.016641       0.005119       0.007829
---------------------------------------------------
 Number of fixed atoms: 0
 Gradient time:  CPU 1855.51 s  wall 97.67 s

 *****************************************************
             Starting BFGS Algorithm
 *****************************************************
            LIBOPT3 RUN PARAMETERS

  Geometry Optimization Coordinates :
	Delocalized Natural Internal Coordinates

  Step Length Selection Method :
	Eigenvector Following Algorithm

  Convergence Criteria :
	Max Gradient Component    	3.00000000e-04
	Max Displacement Component	1.20000000e-03
	Absolute Energy Difference	1.00000000e-06

  Initial Hessian :
	Approximate Hessian - Simple Internal Coordinate Scaled

  Type of Verification :
	Verify with final updated Hessian
 *****************************************************

	OPTIMIZATION CYCLE:	1

 Scaling Magnitude of Eigenvalues
 	Minimum: -25.00000000	 Maximum: 25.00000000
 51 Hessian Eigenvalues to form next step
   0.10000033   0.10000193   0.10000251   0.10000761   0.10001194
   0.10001562   0.10001922   0.10002110   0.10005808   0.10007323
   0.10027501   0.10032160   0.17294353   0.17688901   0.18820379
   0.19467373   0.19960602   0.19989898   0.19992894   0.19994077
   0.19999858   0.20083681   0.20110204   0.20311747   0.21075384
   0.22180960   0.22806610   0.28823821   0.30709398   0.30993678
   0.43090768   0.43458624   0.43622516   0.45636795   0.46941365
   0.47976619   0.49630822   0.49981526   0.49985842   0.49992043
   0.49999446   0.50000000   0.50000000   0.50000000   0.50000000
   0.50314956   0.51509136   0.51580491   0.51778322   0.53385588
   0.53602430

 Minimum Search taking a RFO step
 Searching for Lambda that minimizes along all modes
	Value of Lambda   -0.06841280
	Norm  of Stepsize  0.39681621
	RMS   of Stepsize  0.05556538

	Performing Iterative Coordinate Back-Transformation

	  Starting from Previous Position

	  iter:	0	rms: 8.8216051116e-02	maxdev: 1.8146650331e-01
	  iter:	1	rms: 1.0787583871e-03	maxdev: 2.3885420727e-03
	  iter:	2	rms: 8.1508393398e-07	maxdev: 2.0654356205e-06	 Success!

	Finished Iterative Coordinate Back-Transformation
 Adding empirical dispersion correction 
 ----------------------------------------------------------------
 Doing -D3(BJ) with
 s6  =   1.00000e+00
 s8  =   1.98890e+00
 a1  =   3.98100e-01
 a2  =   4.42110e+00
 -D3 energy without 3body term =     -4.0903990302e-02 hartrees
 ----------------------------------------------------------------
             Standard Nuclear Orientation (Angstroms)
    I     Atom           X                Y                Z
 ----------------------------------------------------------------
    1      Fe      1.3105690837     0.9451510566    -0.4155439985
    2      O       0.8384599256    -0.9292330298    -0.3309446190
    3      C       0.1282882134    -1.2202916511     0.7449489847
    4      C      -0.0438093553    -0.0763102526     1.7164760249
    5      O      -0.4357592245     1.3692224375    -1.1427079128
    6      O      -0.6865880969    -0.2338522288     2.7591356619
    7      O      -0.3632939699    -2.3272747678     0.9867639038
    8      O       1.6003553191     2.8592920379    -0.4692728080
    9      C       0.5055085739     3.5319713566    -0.7763990155
   10      C      -0.6731571939     2.6702851168    -1.1573030859
   11      O       0.5559355392     1.0496613609     1.3642130844
   12      O      -1.7499067403     3.1859809237    -1.4754494820
   13      O       0.4143777840     4.7639029453    -0.7893066608
   14      O       2.1071961347     0.7448351163    -2.1679331723
   15      O       3.0911298985     0.5996781251     0.2563032206
   16      C       3.4075704053     0.5125663405    -2.1099839010
   17      C       3.9700881714     0.4052593996    -0.7124120761
   18      O       4.1422330668     0.3737422218    -3.0934556759
   19      O       5.1684257651     0.1667904912    -0.5313610724
 ----------------------------------------------------------------
 Nuclear Repulsion Energy =        2001.10944956 hartrees
 There are       83 alpha and       78 beta electrons
No default van der Waals radius is available for Z = 26
	Found R = 2.4400 A in the $van_der_waals section
 Discretize the solute cavity surface with Lebedev spheres
	Using 110 Lebedev grid points for each H atom
	Using 194 Lebedev grid points for other atoms
	Atomic van der Waals radii (Bondi set) will be scaled by 1.20
 Using smooth SwiG surface discretization
 Remove points where switching function is < 1.0e-08
 Keep 1608 surface tesserae and discard 2078 interior tesserae
 Molecular Surface Area = 254.823 Angst**2

 Applying Cartesian multipole field
    Component          Value
    ---------          -----
     (2,0,0)        1.00000E-11
     (0,2,0)        2.00000E-11
     (0,0,2)       -3.00000E-11
 Nucleus-field energy     = 3.4126929703e-08 hartrees
 Read the previous MOs as SCF guess

 -----------------------------------------------------------------------
  General SCF calculation program by
  Eric Jon Sundstrom, Paul Horn, Yuezhi Mao, Dmitri Zuev, Alec White,
  David Stuck, Shaama M.S., Shane Yost, Joonho Lee, David Small,
  Daniel Levine, Susi Lehtola, Hugh Burton, Evgeny Epifanovsky,
  Bang C. Huynh
 -----------------------------------------------------------------------
 Requested basis set is non-standard
 There are 123 shells and 295 basis functions
 Exchange:     0.2000 Hartree-Fock + 0.0800 Slater + 0.7200 B88
 Correlation:  0.1900 VWN1RPA + 0.8100 LYP
 Using SG-1 standard quadrature grid
 Dispersion:   Grimme D3
 A cutoff of  1.0D-12 yielded   7188 shell pairs
 There are     40414 function pairs (     46905 Cartesian)
 Smallest overlap matrix eigenvalue = 2.91E-04
 A unrestricted SCF calculation will be
 performed using DIIS
 SCF converges when DIIS error is below 1.0e-08
 ---------------------------------------
  Cycle       Energy         DIIS error
 ---------------------------------------
    1   -2395.2963032395      1.42e-03  
    2   -2395.8492505522      1.08e-03  
    3   -2395.8391036516      1.36e-03  
    4   -2395.8993449286      2.08e-04  
    5   -2395.9000679086      1.49e-04  
    6   -2395.9006905473      3.62e-05  
    7   -2395.9007271877      9.14e-06  
    8   -2395.9007299252      1.05e-06  
    9   -2395.9007299706      3.58e-07  
   10   -2395.9007299750      2.40e-07  
   11   -2395.9007299769      1.01e-07  
   12   -2395.9007299775      3.26e-08  
   13   -2395.9007299776      2.10e-08  
   14   -2395.9007299777      1.11e-08  
   15   -2395.9007299777      4.08e-09  Convergence criterion met
 ---------------------------------------
 SCF time:   CPU 3145.21s  wall 192.00s 
<S^2> =          8.754985490

************** Final PCM Free Energy Summary **************
 G_electrostatic  =      -0.54872590 hartree =    -344.33069825 kcal/mol
 G_cavitation     =       0.00000000 hartree =       0.00000000 kcal/mol
 G_dispersion     =       0.00000000 hartree =       0.00000000 kcal/mol
 G_repulsion      =       0.00000000 hartree =       0.00000000 kcal/mol
 --------------------------------------------------
 Non-electrostatic Free Energy =       0.00000000 hartree =       0.00000000 kcal/mol
 Total                         =      -0.54872590 hartree =    -344.33069825 kcal/mol
 --------------------------------------------------
 SCF Energy (H0 + V/2)                       =   -2395.90072998 
 Solute Internal Energy (H0)                 =   -2395.35200408 
 Total Free Energy (H0 + V/2 + non-elec)     =   -2395.90072998 hartree
                                             = -1503450.39963680 kcal/mol
***********************************************************

 SCF   energy in the final basis set =    -2395.9007299777
 Total energy in the final basis set =    -2395.9007299777
 
 --------------------------------------------------------------
 
                    Orbital Energies (a.u.)
 --------------------------------------------------------------
 
 Alpha MOs
 -- Occupied --
******** -30.1122 -25.9641 -25.9626 -25.9626 -19.1076 -19.1073 -19.1069
-19.1067 -19.1066 -19.1058 -19.0963 -19.0962 -19.0960 -19.0959 -19.0956
-19.0954 -10.2789 -10.2787 -10.2784 -10.2781 -10.2779 -10.2775  -3.6017
 -2.3771  -2.3756  -2.3751  -1.0561  -1.0519  -1.0509  -1.0186  -1.0181
 -1.0174  -0.9711  -0.9631  -0.9622  -0.9409  -0.9406  -0.9398  -0.6282
 -0.6267  -0.6257  -0.5135  -0.5133  -0.5078  -0.4989  -0.4777  -0.4763
 -0.4491  -0.4487  -0.4421  -0.4290  -0.4278  -0.4243  -0.4131  -0.4129
 -0.4058  -0.4011  -0.3894  -0.3869  -0.3710  -0.3699  -0.3606  -0.3595
 -0.3572  -0.3164  -0.3128  -0.3048  -0.3042  -0.2793  -0.2787  -0.2679
 -0.2638  -0.2622  -0.2617  -0.2569  -0.2559  -0.2427  -0.2343  -0.2318
 -0.2308  -0.1947  -0.1945
 -- Virtual --
 -0.0227  -0.0182  -0.0150   0.0476   0.0680   0.0730   0.0746   0.1276
  0.1331   0.1335   0.2534   0.2567   0.2573   0.2684   0.2876   0.2965
  0.2999   0.3246   0.3301   0.3466   0.3475   0.3541   0.3593   0.3824
  0.3846   0.3912   0.3943   0.3991   0.4153   0.4430   0.4445   0.5169
  0.5250   0.5273   0.5489   0.5651   0.5695   0.5707   0.5875   0.5897
  0.5909   0.5932   0.5945   0.6096   0.6105   0.6219   0.6370   0.6443
  0.6454   0.6868   0.6916   0.6972   0.7414   0.7972   0.8002   0.8015
  0.8705   0.8710   0.8763   0.9145   0.9168   0.9571   0.9591   0.9790
  0.9804   1.0073   1.0099   1.0114   1.0136   1.0160   1.0240   1.0342
  1.0354   1.0390   1.0466   1.0656   1.0790   1.0890   1.0946   1.0991
  1.1350   1.1434   1.1459   1.1716   1.1746   1.1816   1.1917   1.2011
  1.2362   1.2489   1.2618   1.2692   1.2928   1.2991   1.3140   1.3516
  1.3533   1.3815   1.4169   1.4362   1.4395   1.4432   1.4529   1.4662
  1.5249   1.5358   1.5604   1.5935   1.6004   1.6133   1.6180   1.6353
  1.6425   1.6506   1.6638   1.6792   1.7200   1.7231   1.7328   1.7363
  1.7595   1.7789   1.8028   1.8575   1.8588   1.8616   1.8932   1.9297
  1.9578   1.9600   2.0012   2.0321   2.0326   2.0502   2.0957   2.1028
  2.1088   2.1201   2.1298   2.1488   2.2079   2.3151   2.4267   2.4304
  2.4347   2.5934   2.5949   2.6339   2.6350   2.6400   2.6425   2.6438
  2.6459   2.6597   2.6643   2.6670   2.6681   2.6972   2.7160   2.7193
  2.7219   2.7396   2.7401   2.7431   2.8053   2.8228   2.8645   2.8873
  2.8951   2.8989   2.9063   2.9145   2.9439   2.9501   2.9821   2.9850
  2.9979   3.0623   3.0650   3.0714   3.0716   3.0865   3.1457   3.1845
  3.1983   3.2300   3.2511   3.2564   3.2579   3.2719   3.2760   3.3034
  3.3126   3.3142   3.3371   3.3445   3.3675   3.4036   3.4324   3.4392
  3.4806   3.4858   3.5012   3.5915   3.5994   3.6034   3.6165   3.6344
  3.6366   3.6798   3.6859   3.7021
 
 Beta MOs
 -- Occupied --
******** -30.0175 -25.8847 -25.8840 -25.8839 -19.1038 -19.1035 -19.1031
-19.1029 -19.1028 -19.1020 -19.0958 -19.0957 -19.0955 -19.0954 -19.0951
-19.0949 -10.2789 -10.2787 -10.2784 -10.2782 -10.2780 -10.2775  -3.3817
 -2.1448  -2.1447  -2.1443  -1.0524  -1.0486  -1.0477  -1.0150  -1.0145
 -1.0140  -0.9663  -0.9577  -0.9568  -0.9347  -0.9344  -0.9338  -0.6260
 -0.6245  -0.6237  -0.4983  -0.4925  -0.4874  -0.4871  -0.4649  -0.4635
 -0.4362  -0.4357  -0.4316  -0.4260  -0.4247  -0.4221  -0.4037  -0.4018
 -0.4015  -0.3702  -0.3620  -0.3605  -0.3205  -0.3198  -0.3132  -0.3028
 -0.2910  -0.2907  -0.2871  -0.2831  -0.2718  -0.2620  -0.2541  -0.2509
 -0.2487  -0.2467  -0.2346  -0.2339  -0.2307  -0.2300
 -- Virtual --
 -0.0576  -0.0567  -0.0549  -0.0205  -0.0123  -0.0068   0.0160   0.0164
  0.0486   0.0688   0.0743   0.0758   0.1325   0.1356   0.1359   0.2575
  0.2590   0.2635   0.2721   0.2900   0.3009   0.3078   0.3288   0.3335
  0.3523   0.3537   0.3627   0.3632   0.3859   0.3894   0.3983   0.4024
  0.4078   0.4325   0.4473   0.4487   0.5185   0.5292   0.5303   0.5532
  0.5656   0.5713   0.5725   0.5888   0.5913   0.5923   0.5955   0.5976
  0.6114   0.6127   0.6223   0.6386   0.6484   0.6494   0.6904   0.6947
  0.6991   0.7568   0.8162   0.8170   0.8358   0.8723   0.8768   0.8819
  0.9223   0.9261   0.9620   0.9649   0.9840   0.9845   1.0089   1.0118
  1.0129   1.0157   1.0183   1.0285   1.0395   1.0412   1.0438   1.0528
  1.0681   1.0812   1.0904   1.0963   1.1009   1.1403   1.1451   1.1579
  1.1750   1.1781   1.1835   1.1955   1.2060   1.2388   1.2770   1.2795
  1.2862   1.3095   1.3208   1.3233   1.3564   1.3597   1.3945   1.4295
  1.4453   1.4497   1.4539   1.4719   1.4774   1.5349   1.5446   1.5957
  1.6072   1.6150   1.6197   1.6399   1.6527   1.6700   1.6751   1.6771
  1.6911   1.7285   1.7342   1.7415   1.7545   1.7807   1.7874   1.8105
  1.8607   1.8626   1.8660   1.9101   1.9337   1.9604   1.9632   2.0083
  2.0417   2.0425   2.0530   2.1049   2.1101   2.1174   2.1309   2.1380
  2.1601   2.2180   2.3288   2.4392   2.4444   2.4524   2.6078   2.6122
  2.6430   2.6433   2.6443   2.6542   2.6555   2.6612   2.6674   2.6704
  2.6715   2.6742   2.7004   2.7270   2.7320   2.7349   2.7415   2.7417
  2.7451   2.8155   2.8308   2.8874   2.8950   2.9097   2.9122   2.9159
  2.9228   2.9516   2.9894   2.9916   3.0046   3.0528   3.0648   3.0679
  3.1092   3.1458   3.1630   3.2266   3.2303   3.2352   3.2365   3.2613
  3.2640   3.2720   3.2919   3.2968   3.3134   3.3203   3.3217   3.3572
  3.3673   3.3711   3.4104   3.4387   3.4457   3.4849   3.4910   3.5076
  3.5944   3.6052   3.6103   3.6396   3.6585   3.6598   3.7526   3.7607
  3.7827
 --------------------------------------------------------------
 
          Ground-State Mulliken Net Atomic Charges

     Atom                 Charge (a.u.)    Spin (a.u.)
  --------------------------------------------------------
      1 Fe                    0.561074       4.244209
      2 O                    -0.394115       0.106765
      3 C                     0.138073       0.002817
      4 C                     0.142068       0.003203
      5 O                    -0.393973       0.105066
      6 O                    -0.337536       0.016823
      7 O                    -0.337931       0.016987
      8 O                    -0.394193       0.106318
      9 C                     0.138221       0.002827
     10 C                     0.141584       0.003086
     11 O                    -0.395370       0.105527
     12 O                    -0.339007       0.016937
     13 O                    -0.338834       0.016836
     14 O                    -0.394833       0.105755
     15 O                    -0.395438       0.106051
     16 C                     0.137663       0.002902
     17 C                     0.136778       0.002878
     18 O                    -0.337510       0.017286
     19 O                    -0.336723       0.017727
  --------------------------------------------------------
  Sum of atomic charges =    -3.000000
  Sum of spin   charges =     5.000000

 -----------------------------------------------------------------
                    Cartesian Multipole Moments
 -----------------------------------------------------------------
    Charge (ESU x 10^10)
               -14.4096
    Dipole Moment (Debye)
         X     -17.3034      Y     -14.0641      Z       5.4773
       Tot      22.9610
    Quadrupole Moments (Debye-Ang)
        XX    -217.0911     XY      -6.5163     YY    -197.8062
        XZ      27.0945     YZ      20.2565     ZZ    -167.1325
    Octopole Moments (Debye-Ang^2)
       XXX    -840.6342    XXY    -169.0904    XYY    -139.9278
       YYY    -600.4353    XXZ     170.6381    XYZ     -12.3547
       YYZ      91.6094    XZZ    -215.1195    YZZ    -136.0769
       ZZZ     171.6572
    Hexadecapole Moments (Debye-Ang^3)
      XXXX   -5494.8861   XXXY    -292.7002   XXYY   -1118.4553
      XYYY    -275.5968   YYYY   -4043.5322   XXXZ    1003.9894
      XXYZ     207.8834   XYYZ     128.1334   YYYZ     685.7363
      XXZZ   -1208.1653   XYZZ     -97.6943   YYZZ    -756.3553
      XZZZ     824.0620   YZZZ     462.7754   ZZZZ   -1861.2371
 -----------------------------------------------------------------
 Calculating analytic gradient of the SCF energy
 Gradient of SCF Energy
            1           2           3           4           5           6
    1   0.0043015  -0.0369827  -0.0559826  -0.0839739   0.0367771   0.1205964
    2  -0.0020535   0.0381628  -0.1720688   0.0038144   0.0806365   0.0209525
    3  -0.0018935   0.0760611   0.0080077   0.1616471   0.0203371  -0.2048493
            7           8           9          10          11          12
    1   0.0900902  -0.0897677   0.0187801  -0.1653605  -0.0187946   0.2109264
    2   0.2176972  -0.0104121   0.1787931   0.0478154  -0.0832337  -0.0900405
    3  -0.0380066  -0.0208935   0.0041617  -0.0553538  -0.0296913   0.0647394
           13          14          15          16          17          18
    1   0.0072949   0.0679740   0.0062499   0.0800816   0.1673946  -0.1320444
    2  -0.2383991  -0.0102830  -0.0028405  -0.0168478  -0.0325163   0.0255107
    3   0.0000708   0.0595620  -0.0907860  -0.1596629   0.0569565   0.1941412
           19
    1  -0.2275604
    2   0.0453126
    3  -0.0445477
 Max gradient component =       2.384E-01
 RMS gradient           =       1.013E-01
 Computing fast CPCM-SWIG gradient
 Updating gradient with PCM contributions...
 -- total gradient after adding PCM contribution --
---------------------------------------------------
  Atom         X              Y              Z     
---------------------------------------------------
   1      -0.002421      -0.000473       0.001672
   2       0.021995       0.027966      -0.022006
   3      -0.009430       0.023925       0.028720
   4      -0.002696      -0.033613      -0.021383
   5       0.025215      -0.033128       0.012234
   6      -0.002982      -0.001117       0.006323
   7      -0.002704      -0.006687       0.001336
   8       0.019199      -0.036448       0.003323
   9      -0.034932      -0.015256      -0.009163
  10       0.025477       0.029293       0.011814
  11       0.018918       0.024170      -0.030520
  12      -0.006319       0.003023      -0.002741
  13      -0.000313       0.007539      -0.000509
  14      -0.036225       0.009566       0.018802
  15      -0.038254       0.006055       0.012684
  16       0.022117      -0.001279       0.033159
  17      -0.008261      -0.001430      -0.039631
  18       0.004262      -0.001420      -0.006212
  19       0.007355      -0.000686       0.002099
---------------------------------------------------
 Number of fixed atoms: 0
 Gradient time:  CPU 1632.94 s  wall 86.34 s

     Step 1	:
        Energy is -2395.9007299777
                            Maximum         Tolerance       Converged?
         Gradient           6.80232879e-02	3.00000000e-04	false
         Displacement       2.44468686e-01	1.20000000e-03	false
         Energy change      5.01357931e-02	1.00000000e-06	false


	OPTIMIZATION CYCLE:	2

 Scaling Magnitude of Eigenvalues
 	Minimum: -25.00000000	 Maximum: 25.00000000
 51 Hessian Eigenvalues to form next step
   0.09985881   0.10000084   0.10000197   0.10000731   0.10001197
   0.10001646   0.10001991   0.10002396   0.10005790   0.10006990
   0.10027501   0.10029030   0.16117746   0.17355585   0.17742966
   0.18891351   0.19488284   0.19966333   0.19991416   0.19993619
   0.19998189   0.20087668   0.20111828   0.20320387   0.21927960
   0.22610269   0.22836706   0.28801076   0.30315442   0.30713363
   0.30998596   0.43151569   0.43604874   0.44961760   0.45683705
   0.46941868   0.47979101   0.49640428   0.49982095   0.49988754
   0.49993079   0.49999605   0.50000000   0.50000000   0.50286093
   0.50588769   0.51576290   0.51775425   0.53375401   0.53601816
   0.58293978

 Minimum Search taking a RFO step
 Searching for Lambda that minimizes along all modes
	Value of Lambda   -0.04099811
	Norm  of Stepsize  0.41920211
	RMS   of Stepsize  0.05870004

	Performing Iterative Coordinate Back-Transformation

	  Starting from Previous Position

	  iter:	0	rms: 8.1140255191e-02	maxdev: 1.4956489281e-01
	  iter:	1	rms: 1.2402288170e-03	maxdev: 2.5236913135e-03
	  iter:	2	rms: 1.2075975563e-06	maxdev: 2.8294119539e-06
	  iter:	3	rms: 2.5321292060e-13	maxdev: 1.0189901840e-12	 Success!

	Finished Iterative Coordinate Back-Transformation
 Adding empirical dispersion correction 
 ----------------------------------------------------------------
 Doing -D3(BJ) with
 s6  =   1.00000e+00
 s8  =   1.98890e+00
 a1  =   3.98100e-01
 a2  =   4.42110e+00
 -D3 energy without 3body term =     -3.9690093138e-02 hartrees
 ----------------------------------------------------------------
             Standard Nuclear Orientation (Angstroms)
    I     Atom           X                Y                Z
 ----------------------------------------------------------------
    1      Fe      1.3070284182     0.9470902436    -0.4161522893
    2      O       0.7769448112    -0.9701918895    -0.2837881879
    3      C       0.0934406129    -1.2762489656     0.7643626325
    4      C      -0.0492346318    -0.1119135473     1.7855628506
    5      O      -0.4674789215     1.4493933963    -1.1887250580
    6      O      -0.6733045639    -0.2664007929     2.8284110624
    7      O      -0.3995258664    -2.3741329190     0.9919227946
    8      O       1.5421368056     2.9278314824    -0.4604765020
    9      C       0.4879852162     3.5999932972    -0.7721861970
   10      C      -0.7135078711     2.7155362887    -1.2087203724
   11      O       0.5387346419     0.9795088609     1.4263949226
   12      O      -1.7782237070     3.2227730680    -1.5400631766
   13      O       0.4012884287     4.8215555540    -0.7714870638
   14      O       2.1793939540     0.7057307948    -2.1916253870
   15      O       3.1632653679     0.6090446515     0.2190552611
   16      C       3.4484665872     0.4812179570    -2.1519967307
   17      C       4.0349870991     0.4129361737    -0.7125205445
   18      O       4.1713455906     0.3356021443    -3.1296095357
   19      O       5.2238813283     0.1820512019    -0.5325910791
 ----------------------------------------------------------------
 Nuclear Repulsion Energy =        1969.10437369 hartrees
 There are       83 alpha and       78 beta electrons
No default van der Waals radius is available for Z = 26
	Found R = 2.4400 A in the $van_der_waals section
 Discretize the solute cavity surface with Lebedev spheres
	Using 110 Lebedev grid points for each H atom
	Using 194 Lebedev grid points for other atoms
	Atomic van der Waals radii (Bondi set) will be scaled by 1.20
 Using smooth SwiG surface discretization
 Remove points where switching function is < 1.0e-08
 Keep 1627 surface tesserae and discard 2059 interior tesserae
 Molecular Surface Area = 258.635 Angst**2

 Applying Cartesian multipole field
    Component          Value
    ---------          -----
     (2,0,0)        1.00000E-11
     (0,2,0)        2.00000E-11
     (0,0,2)       -3.00000E-11
 Nucleus-field energy     = 3.4610547652e-08 hartrees
 Read the previous MOs as SCF guess

 -----------------------------------------------------------------------
  General SCF calculation program by
  Eric Jon Sundstrom, Paul Horn, Yuezhi Mao, Dmitri Zuev, Alec White,
  David Stuck, Shaama M.S., Shane Yost, Joonho Lee, David Small,
  Daniel Levine, Susi Lehtola, Hugh Burton, Evgeny Epifanovsky,
  Bang C. Huynh
 -----------------------------------------------------------------------
 Requested basis set is non-standard
 There are 123 shells and 295 basis functions
 Exchange:     0.2000 Hartree-Fock + 0.0800 Slater + 0.7200 B88
 Correlation:  0.1900 VWN1RPA + 0.8100 LYP
 Using SG-1 standard quadrature grid
 Dispersion:   Grimme D3
 A cutoff of  1.0D-12 yielded   7145 shell pairs
 There are     39897 function pairs (     46239 Cartesian)
 Smallest overlap matrix eigenvalue = 3.38E-04
 A unrestricted SCF calculation will be
 performed using DIIS
 SCF converges when DIIS error is below 1.0e-08
 ---------------------------------------
  Cycle       Energy         DIIS error
 ---------------------------------------
    1   -2395.4516001824      1.58e-03  
    2   -2395.9026663204      6.73e-04  
    3   -2395.8655695221      1.31e-03  
    4   -2395.9225202801      2.02e-04  
    5   -2395.9230333101      1.56e-04  
    6   -2395.9237222987      3.09e-05  
    7   -2395.9237477020      9.37e-06  
    8   -2395.9237503928      2.29e-06  
    9   -2395.9237506153      4.77e-07  
   10   -2395.9237506236      2.71e-07  
   11   -2395.9237506261      8.90e-08  
   12   -2395.9237506266      2.27e-08  
   13   -2395.9237506267      1.43e-08  
   14   -2395.9237506266      7.90e-09  Convergence criterion met
 ---------------------------------------
 SCF time:   CPU 2886.13s  wall 177.00s 
<S^2> =          8.755322486

************** Final PCM Free Energy Summary **************
 G_electrostatic  =      -0.54327906 hartree =    -340.91275758 kcal/mol
 G_cavitation     =       0.00000000 hartree =       0.00000000 kcal/mol
 G_dispersion     =       0.00000000 hartree =       0.00000000 kcal/mol
 G_repulsion      =       0.00000000 hartree =       0.00000000 kcal/mol
 --------------------------------------------------
 Non-electrostatic Free Energy =       0.00000000 hartree =       0.00000000 kcal/mol
 Total                         =      -0.54327906 hartree =    -340.91275758 kcal/mol
 --------------------------------------------------
 SCF Energy (H0 + V/2)                       =   -2395.92375063 
 Solute Internal Energy (H0)                 =   -2395.38047156 
 Total Free Energy (H0 + V/2 + non-elec)     =   -2395.92375063 hartree
                                             = -1503464.84531206 kcal/mol
***********************************************************

 SCF   energy in the final basis set =    -2395.9237506266
 Total energy in the final basis set =    -2395.9237506266
 
 --------------------------------------------------------------
 
                    Orbital Energies (a.u.)
 --------------------------------------------------------------
 
 Alpha MOs
 -- Occupied --
******** -30.1348 -25.9874 -25.9856 -25.9855 -19.1115 -19.1111 -19.1106
-19.1104 -19.1101 -19.1095 -19.0925 -19.0920 -19.0916 -19.0915 -19.0915
-19.0911 -10.2754 -10.2750 -10.2746 -10.2743 -10.2743 -10.2738  -3.6198
 -2.3954  -2.3927  -2.3924  -1.0626  -1.0593  -1.0584  -1.0284  -1.0277
 -1.0274  -0.9740  -0.9690  -0.9680  -0.9478  -0.9470  -0.9466  -0.6123
 -0.6104  -0.6097  -0.5165  -0.5164  -0.5108  -0.5001  -0.4800  -0.4792
 -0.4512  -0.4508  -0.4428  -0.4297  -0.4291  -0.4273  -0.4163  -0.4158
 -0.4094  -0.4089  -0.3997  -0.3982  -0.3769  -0.3768  -0.3703  -0.3695
 -0.3681  -0.3187  -0.3138  -0.3079  -0.3074  -0.2844  -0.2839  -0.2704
 -0.2672  -0.2662  -0.2645  -0.2602  -0.2593  -0.2426  -0.2273  -0.2252
 -0.2243  -0.2104  -0.2103
 -- Virtual --
 -0.0081  -0.0049  -0.0024   0.0474   0.0664   0.0727   0.0743   0.1319
  0.1376   0.1381   0.2371   0.2546   0.2554   0.2662   0.2876   0.2884
  0.3000   0.3152   0.3294   0.3302   0.3407   0.3443   0.3470   0.3740
  0.3796   0.3826   0.3951   0.3961   0.4218   0.4558   0.4566   0.5182
  0.5308   0.5321   0.5574   0.5625   0.5661   0.5703   0.5864   0.5903
  0.5956   0.5962   0.6036   0.6044   0.6101   0.6163   0.6311   0.6531
  0.6554   0.6957   0.7008   0.7075   0.7470   0.7793   0.7814   0.7827
  0.8660   0.8678   0.8712   0.9087   0.9104   0.9417   0.9506   0.9686
  0.9728   1.0053   1.0059   1.0071   1.0126   1.0147   1.0196   1.0265
  1.0288   1.0369   1.0398   1.0618   1.0710   1.0866   1.0931   1.0949
  1.1439   1.1490   1.1541   1.1604   1.1616   1.1721   1.1746   1.1789
  1.2160   1.2332   1.2364   1.2582   1.2616   1.2675   1.3252   1.3497
  1.3531   1.3746   1.3927   1.3970   1.4148   1.4157   1.4389   1.4495
  1.4989   1.5105   1.5394   1.5829   1.5858   1.5974   1.6052   1.6108
  1.6360   1.6512   1.6612   1.6674   1.7081   1.7101   1.7279   1.7363
  1.7550   1.7712   1.7975   1.8312   1.8499   1.8609   1.8619   1.9213
  1.9570   1.9588   1.9812   2.0419   2.0424   2.0693   2.0909   2.0959
  2.1027   2.1204   2.1331   2.1429   2.1868   2.3101   2.3573   2.4242
  2.4290   2.5973   2.6025   2.6243   2.6417   2.6439   2.6440   2.6450
  2.6552   2.6573   2.6693   2.6697   2.6720   2.6823   2.6902   2.7210
  2.7224   2.7413   2.7419   2.7461   2.7689   2.7905   2.8074   2.8843
  2.8873   2.8932   2.9063   2.9180   2.9268   2.9316   2.9909   2.9937
  3.0007   3.0336   3.0462   3.0908   3.0919   3.0985   3.1043   3.1133
  3.1324   3.2700   3.2724   3.2774   3.2781   3.2863   3.2874   3.3313
  3.3358   3.3385   3.3526   3.3540   3.3952   3.4325   3.4585   3.4627
  3.4990   3.5029   3.5209   3.5443   3.5519   3.5554   3.6209   3.6238
  3.6292   3.6516   3.6518   3.6554
 
 Beta MOs
 -- Occupied --
******** -30.0404 -25.9082 -25.9071 -25.9071 -19.1078 -19.1073 -19.1068
-19.1067 -19.1064 -19.1058 -19.0920 -19.0914 -19.0910 -19.0909 -19.0909
-19.0905 -10.2754 -10.2750 -10.2746 -10.2744 -10.2744 -10.2739  -3.4002
 -2.1632  -2.1619  -2.1617  -1.0587  -1.0555  -1.0548  -1.0245  -1.0239
 -1.0236  -0.9696  -0.9642  -0.9632  -0.9423  -0.9415  -0.9412  -0.6100
 -0.6082  -0.6076  -0.5015  -0.4936  -0.4891  -0.4889  -0.4685  -0.4678
 -0.4361  -0.4353  -0.4308  -0.4268  -0.4264  -0.4249  -0.4071  -0.4055
 -0.4050  -0.3761  -0.3703  -0.3692  -0.3215  -0.3207  -0.3100  -0.3088
 -0.2917  -0.2913  -0.2862  -0.2833  -0.2694  -0.2647  -0.2562  -0.2547
 -0.2476  -0.2471  -0.2340  -0.2268  -0.2237  -0.2230
 -- Virtual --
 -0.0740  -0.0727  -0.0725  -0.0160  -0.0153  -0.0056  -0.0001   0.0029
  0.0485   0.0671   0.0738   0.0753   0.1361   0.1399   0.1403   0.2548
  0.2568   0.2578   0.2710   0.2923   0.2956   0.3051   0.3232   0.3354
  0.3361   0.3453   0.3523   0.3525   0.3781   0.3870   0.3887   0.3992
  0.4005   0.4337   0.4605   0.4610   0.5186   0.5345   0.5362   0.5618
  0.5631   0.5675   0.5722   0.5874   0.5917   0.5972   0.5979   0.6056
  0.6074   0.6129   0.6173   0.6346   0.6568   0.6583   0.6990   0.7043
  0.7089   0.7601   0.7979   0.7992   0.8163   0.8703   0.8704   0.8741
  0.9160   0.9189   0.9508   0.9547   0.9722   0.9757   1.0067   1.0076
  1.0087   1.0151   1.0168   1.0233   1.0334   1.0354   1.0428   1.0432
  1.0646   1.0732   1.0879   1.0944   1.0966   1.1477   1.1527   1.1632
  1.1646   1.1655   1.1738   1.1774   1.1837   1.2180   1.2484   1.2521
  1.2834   1.2864   1.2991   1.3342   1.3558   1.3571   1.3915   1.4070
  1.4097   1.4214   1.4242   1.4514   1.4655   1.5142   1.5293   1.5740
  1.5910   1.5964   1.6036   1.6378   1.6399   1.6529   1.6665   1.6689
  1.6761   1.7202   1.7258   1.7372   1.7503   1.7609   1.7815   1.8100
  1.8486   1.8528   1.8658   1.8676   1.9272   1.9594   1.9612   1.9865
  2.0537   2.0539   2.0722   2.1019   2.1094   2.1124   2.1252   2.1395
  2.1517   2.1950   2.3219   2.3666   2.4425   2.4473   2.6093   2.6161
  2.6396   2.6443   2.6457   2.6464   2.6612   2.6697   2.6718   2.6725
  2.6734   2.6774   2.6939   2.6949   2.7304   2.7336   2.7439   2.7441
  2.7486   2.7791   2.7992   2.8293   2.8989   2.9031   2.9047   2.9130
  2.9232   2.9328   3.0005   3.0012   3.0064   3.0585   3.0926   3.0945
  3.1020   3.1119   3.1151   3.1741   3.1861   3.2293   3.2748   3.2788
  3.2808   3.2823   3.2976   3.2983   3.3359   3.3499   3.3561   3.3610
  3.3633   3.3986   3.4449   3.4678   3.4731   3.5053   3.5116   3.5265
  3.6087   3.6174   3.6194   3.6292   3.6326   3.6399   3.6641   3.6674
  3.6853
 --------------------------------------------------------------
 
          Ground-State Mulliken Net Atomic Charges

     Atom                 Charge (a.u.)    Spin (a.u.)
  --------------------------------------------------------
      1 Fe                    0.578564       4.248593
      2 O                    -0.373363       0.105747
      3 C                     0.114013       0.000801
      4 C                     0.116955       0.000990
      5 O                    -0.373922       0.104163
      6 O                    -0.337332       0.018892
      7 O                    -0.337080       0.019299
      8 O                    -0.374099       0.105511
      9 C                     0.114306       0.000799
     10 C                     0.116410       0.000972
     11 O                    -0.374899       0.104777
     12 O                    -0.337891       0.018915
     13 O                    -0.337175       0.019142
     14 O                    -0.375064       0.105131
     15 O                    -0.376471       0.105310
     16 C                     0.113494       0.000832
     17 C                     0.114282       0.000888
     18 O                    -0.335878       0.019487
     19 O                    -0.334850       0.019750
  --------------------------------------------------------
  Sum of atomic charges =    -3.000000
  Sum of spin   charges =     5.000000

 -----------------------------------------------------------------
                    Cartesian Multipole Moments
 -----------------------------------------------------------------
    Charge (ESU x 10^10)
               -14.4096
    Dipole Moment (Debye)
         X     -17.2153      Y     -14.0676      Z       5.4357
       Tot      22.8869
    Quadrupole Moments (Debye-Ang)
        XX    -219.8324     XY      -5.8385     YY    -200.6790
        XZ      27.8835     YZ      21.2416     ZZ    -169.1030
    Octopole Moments (Debye-Ang^2)
       XXX    -857.8759    XXY    -169.4525    XYY    -135.4654
       YYY    -613.0353    XXZ     177.7692    XYZ     -15.5765
       YYZ      93.6359    XZZ    -216.6607    YZZ    -135.4736
       ZZZ     170.5745
    Hexadecapole Moments (Debye-Ang^3)
      XXXX   -5683.5370   XXXY    -284.0413   XXYY   -1144.3390
      XYYY    -261.6496   YYYY   -4212.5027   XXXZ    1041.4749
      XXYZ     213.0791   XYYZ     123.4161   YYYZ     714.4837
      XXZZ   -1250.6485   XYZZ     -88.7580   YYZZ    -782.9435
      XZZZ     847.8969   YZZZ     479.3767   ZZZZ   -1945.8679
 -----------------------------------------------------------------
 Calculating analytic gradient of the SCF energy
 Gradient of SCF Energy
            1           2           3           4           5           6
    1   0.0052062  -0.0548065  -0.0449005  -0.0744579   0.0180921   0.1243612
    2  -0.0019010   0.0170674  -0.1896129   0.0422309   0.1120753   0.0241894
    3  -0.0019432   0.1021639  -0.0300626   0.1772025   0.0170316  -0.2178363
            7           8           9          10          11          12
    1   0.0977653  -0.1111644   0.0579775  -0.1843859  -0.0394212   0.2217116
    2   0.2295448   0.0184469   0.1868690   0.0112031  -0.1065084  -0.0965828
    3  -0.0393902  -0.0307788   0.0207385  -0.0673485  -0.0098376   0.0722062
           13          14          15          16          17          18
    1   0.0092173   0.1030183   0.0374911   0.0493094   0.1674816  -0.1406007
    2  -0.2526607  -0.0150742  -0.0113974  -0.0152818  -0.0284439   0.0299382
    3  -0.0025191   0.0482318  -0.1064342  -0.1890500   0.0981854   0.2053139
           19
    1  -0.2418946
    2   0.0458983
    3  -0.0458734
 Max gradient component =       2.527E-01
 RMS gradient           =       1.102E-01
 Computing fast CPCM-SWIG gradient
 Updating gradient with PCM contributions...
 -- total gradient after adding PCM contribution --
---------------------------------------------------
  Atom         X              Y              Z     
---------------------------------------------------
   1      -0.000262      -0.000595       0.000914
   2      -0.000579       0.003486       0.008266
   3      -0.000452       0.001135      -0.003101
   4       0.000781      -0.000108      -0.001359
   5       0.003365       0.004910       0.004437
   6       0.005235       0.003367      -0.007727
   7       0.005192       0.008013      -0.003478
   8      -0.007151      -0.001706      -0.005671
   9       0.000836      -0.001096       0.003125
  10       0.001278      -0.000401       0.000375
  11      -0.002695      -0.004489      -0.004889
  12       0.007773      -0.006122       0.002425
  13       0.002848      -0.010013      -0.000123
  14       0.005393       0.001764       0.005280
  15      -0.001907      -0.002175      -0.006609
  16      -0.001714      -0.000437       0.000422
  17      -0.000708       0.000997       0.000757
  18      -0.007508       0.001908       0.006936
  19      -0.009726       0.001562       0.000021
---------------------------------------------------
 Number of fixed atoms: 0
 Gradient time:  CPU 1641.93 s  wall 86.73 s

     Step 2	:
        Energy is -2395.9237506266
                            Maximum         Tolerance       Converged?
         Gradient           3.61807357e-02	3.00000000e-04	false
         Displacement       2.20706665e-01	1.20000000e-03	false
         Energy change      2.30206490e-02	1.00000000e-06	false


	OPTIMIZATION CYCLE:	3

 Scaling Magnitude of Eigenvalues
 	Minimum: -25.00000000	 Maximum: 25.00000000
 51 Hessian Eigenvalues to form next step
   0.09964631   0.10000102   0.10000207   0.10000779   0.10001209
   0.10001684   0.10001974   0.10005235   0.10005784   0.10015188
   0.10022479   0.10027522   0.14734621   0.17356126   0.17734756
   0.18864091   0.19486148   0.19966362   0.19991205   0.19993616
   0.19998195   0.20092296   0.20114922   0.20319962   0.21904507
   0.22550955   0.22836057   0.28708361   0.29485072   0.30713112
   0.31035091   0.43152135   0.43604963   0.44784233   0.45671858
   0.46942049   0.47979274   0.49643960   0.49982096   0.49988755
   0.49993136   0.49999622   0.50000000   0.50000016   0.50302971
   0.51575753   0.51768769   0.52972649   0.53573070   0.53626760
   0.66450105

 Minimum Search taking a RFO step
 Searching for Lambda that minimizes along all modes
	Value of Lambda   -0.00617031
	Norm  of Stepsize  0.16443784
	RMS   of Stepsize  0.02302590

	Performing Iterative Coordinate Back-Transformation

	  Starting from Previous Position

	  iter:	0	rms: 4.8635000916e-02	maxdev: 9.3899558227e-02
	  iter:	1	rms: 2.6113976487e-04	maxdev: 5.1236224828e-04
	  iter:	2	rms: 4.1618643816e-08	maxdev: 9.6181587820e-08	 Success!

	Finished Iterative Coordinate Back-Transformation
 Adding empirical dispersion correction 
 ----------------------------------------------------------------
 Doing -D3(BJ) with
 s6  =   1.00000e+00
 s8  =   1.98890e+00
 a1  =   3.98100e-01
 a2  =   4.42110e+00
 -D3 energy without 3body term =     -3.9017001406e-02 hartrees
 ----------------------------------------------------------------
             Standard Nuclear Orientation (Angstroms)
    I     Atom           X                Y                Z
 ----------------------------------------------------------------
    1      Fe      1.3041354066     0.9483186331    -0.4163557241
    2      O       0.7521687054    -0.9865173770    -0.2705985439
    3      C       0.0726812550    -1.3080566408     0.7844448445
    4      C      -0.0567714664    -0.1394764699     1.8251538912
    5      O      -0.4800223696     1.4803705824    -1.2108105505
    6      O      -0.6762809863    -0.3040734526     2.8780758024
    7      O      -0.4297881459    -2.4098640109     1.0142114184
    8      O       1.5226956228     2.9544333553    -0.4518969529
    9      C       0.4718632583     3.6398682222    -0.7755750434
   10      C      -0.7362918046     2.7495396805    -1.2365164998
   11      O       0.5345424007     0.9512554695     1.4528619119
   12      O      -1.8015296280     3.2665089805    -1.5795116743
   13      O       0.3785722004     4.8688751210    -0.7679648144
   14      O       2.2045110572     0.6889903634    -2.2016675071
   15      O       3.1907996539     0.6150186486     0.2049179974
   16      C       3.4801872411     0.4650064609    -2.1745857632
   17      C       4.0744801456     0.4136520084    -0.7212710208
   18      O       4.2098531881     0.3106189477    -3.1557699253
   19      O       5.2718175656     0.1869084777    -0.5413744461
 ----------------------------------------------------------------
 Nuclear Repulsion Energy =        1946.91669607 hartrees
 There are       83 alpha and       78 beta electrons
No default van der Waals radius is available for Z = 26
	Found R = 2.4400 A in the $van_der_waals section
 Discretize the solute cavity surface with Lebedev spheres
	Using 110 Lebedev grid points for each H atom
	Using 194 Lebedev grid points for other atoms
	Atomic van der Waals radii (Bondi set) will be scaled by 1.20
 Using smooth SwiG surface discretization
 Remove points where switching function is < 1.0e-08
[...]
   11      O       0.5284756898     0.8826007606     1.5272110755
   12      O      -1.6543943064     3.3913431587    -1.9170222307
   13      O       0.4264119695     4.9305666035    -0.8117546226
   14      O       2.1336600603     0.6699628552    -2.1837848414
   15      O       3.1423055191     0.6799124651     0.2262868593
   16      C       3.4105471569     0.4421150139    -2.1497695561
   17      C       4.0133602367     0.4410326698    -0.7053960599
   18      O       4.1300687642     0.2399275059    -3.1265622755
   19      O       5.2111315921     0.2265754003    -0.5284427087
 ----------------------------------------------------------------
 Nuclear Repulsion Energy =        1936.37717522 hartrees
 There are       83 alpha and       78 beta electrons
No default van der Waals radius is available for Z = 26
	Found R = 2.4400 A in the $van_der_waals section
 Discretize the solute cavity surface with Lebedev spheres
	Using 110 Lebedev grid points for each H atom
	Using 194 Lebedev grid points for other atoms
	Atomic van der Waals radii (Bondi set) will be scaled by 1.20
 Using smooth SwiG surface discretization
 Remove points where switching function is < 1.0e-08
 Keep 1627 surface tesserae and discard 2059 interior tesserae
 Molecular Surface Area = 262.626 Angst**2

 Applying Cartesian multipole field
    Component          Value
    ---------          -----
     (2,0,0)        1.00000E-11
     (0,2,0)        2.00000E-11
     (0,0,2)       -3.00000E-11
 Nucleus-field energy     = 3.3489634571e-08 hartrees
 Read the previous MOs as SCF guess

 -----------------------------------------------------------------------
  General SCF calculation program by
  Eric Jon Sundstrom, Paul Horn, Yuezhi Mao, Dmitri Zuev, Alec White,
  David Stuck, Shaama M.S., Shane Yost, Joonho Lee, David Small,
  Daniel Levine, Susi Lehtola, Hugh Burton, Evgeny Epifanovsky,
  Bang C. Huynh
 -----------------------------------------------------------------------
 Requested basis set is non-standard
 There are 123 shells and 295 basis functions
 Exchange:     0.2000 Hartree-Fock + 0.0800 Slater + 0.7200 B88
 Correlation:  0.1900 VWN1RPA + 0.8100 LYP
 Using SG-1 standard quadrature grid
 Dispersion:   Grimme D3
 A cutoff of  1.0D-12 yielded   7116 shell pairs
 There are     39712 function pairs (     46015 Cartesian)
 Smallest overlap matrix eigenvalue = 3.75E-04
 A unrestricted SCF calculation will be
 performed using DIIS
 SCF converges when DIIS error is below 1.0e-08
 ---------------------------------------
  Cycle       Energy         DIIS error
 ---------------------------------------
    1   -2395.3926950274      1.55e-04  
    2   -2395.9241520332      3.94e-04  
    3   -2395.9315358271      1.15e-04  
    4   -2395.9321534606      7.32e-05  
    5   -2395.9323135724      5.74e-05  
    6   -2395.9325125055      3.28e-05  
    7   -2395.9326008246      1.07e-05  
    8   -2395.9326098509      1.88e-06  
    9   -2395.9326100977      1.86e-07  
   10   -2395.9326100999      5.21e-08  
   11   -2395.9326101000      3.71e-08  
   12   -2395.9326101000      1.68e-08  
   13   -2395.9326100998      2.90e-09  Convergence criterion met
 ---------------------------------------
 SCF time:   CPU 3119.86s  wall 191.00s 
<S^2> =          8.755666227

************** Final PCM Free Energy Summary **************
 G_electrostatic  =      -0.53975155 hartree =    -338.69920746 kcal/mol
 G_cavitation     =       0.00000000 hartree =       0.00000000 kcal/mol
 G_dispersion     =       0.00000000 hartree =       0.00000000 kcal/mol
 G_repulsion      =       0.00000000 hartree =       0.00000000 kcal/mol
 --------------------------------------------------
 Non-electrostatic Free Energy =       0.00000000 hartree =       0.00000000 kcal/mol
 Total                         =      -0.53975155 hartree =    -338.69920746 kcal/mol
 --------------------------------------------------
 SCF Energy (H0 + V/2)                       =   -2395.93261010 
 Solute Internal Energy (H0)                 =   -2395.39285855 
 Total Free Energy (H0 + V/2 + non-elec)     =   -2395.93261010 hartree
                                             = -1503470.40471538 kcal/mol
***********************************************************

 SCF   energy in the final basis set =    -2395.9326100998
 Total energy in the final basis set =    -2395.9326100998
 
 --------------------------------------------------------------
 
                    Orbital Energies (a.u.)
 --------------------------------------------------------------
 
 Alpha MOs
 -- Occupied --
******** -30.1463 -25.9986 -25.9975 -25.9974 -19.1140 -19.1139 -19.1138
-19.1138 -19.1137 -19.1136 -19.0944 -19.0943 -19.0942 -19.0942 -19.0942
-19.0941 -10.2776 -10.2774 -10.2774 -10.2774 -10.2772 -10.2772  -3.6286
 -2.4034  -2.4014  -2.4013  -1.0582  -1.0555  -1.0554  -1.0251  -1.0248
 -1.0247  -0.9716  -0.9671  -0.9669  -0.9463  -0.9456  -0.9455  -0.6110
 -0.6076  -0.6076  -0.5137  -0.5135  -0.5070  -0.5008  -0.4765  -0.4763
 -0.4498  -0.4498  -0.4438  -0.4290  -0.4290  -0.4261  -0.4178  -0.4177
 -0.4106  -0.4103  -0.4051  -0.4050  -0.3782  -0.3781  -0.3705  -0.3704
 -0.3689  -0.3180  -0.3148  -0.3071  -0.3070  -0.2877  -0.2876  -0.2710
 -0.2682  -0.2681  -0.2641  -0.2629  -0.2627  -0.2450  -0.2279  -0.2255
 -0.2254  -0.2181  -0.2180
 -- Virtual --
 -0.0088  -0.0067  -0.0066   0.0451   0.0669   0.0719   0.0722   0.1280
  0.1319   0.1320   0.2154   0.2489   0.2491   0.2589   0.2813   0.2827
  0.2838   0.3112   0.3227   0.3236   0.3346   0.3375   0.3380   0.3617
  0.3621   0.3729   0.3830   0.3838   0.4034   0.4593   0.4601   0.5102
  0.5186   0.5189   0.5508   0.5581   0.5592   0.5727   0.5879   0.5882
  0.5892   0.5947   0.5947   0.6061   0.6106   0.6130   0.6141   0.6514
  0.6516   0.6912   0.6914   0.6938   0.7519   0.7647   0.7648   0.7728
  0.8647   0.8647   0.8686   0.9066   0.9068   0.9295   0.9389   0.9636
  0.9641   0.9969   0.9976   0.9985   1.0107   1.0110   1.0112   1.0204
  1.0206   1.0318   1.0340   1.0562   1.0568   1.0855   1.0886   1.0889
  1.1402   1.1518   1.1523   1.1588   1.1593   1.1717   1.1735   1.1751
  1.2005   1.2021   1.2127   1.2448   1.2462   1.2669   1.3194   1.3391
  1.3399   1.3498   1.3527   1.3652   1.4101   1.4216   1.4225   1.4251
  1.4705   1.4725   1.5371   1.5846   1.5847   1.5923   1.5958   1.5964
  1.6295   1.6369   1.6441   1.6447   1.7023   1.7025   1.7261   1.7266
  1.7437   1.7783   1.7808   1.7862   1.8505   1.8547   1.8553   1.9110
  1.9497   1.9497   1.9764   2.0305   2.0308   2.0631   2.0681   2.0702
  2.0860   2.1184   2.1188   2.1617   2.1640   2.2669   2.3039   2.4074
  2.4076   2.6045   2.6053   2.6186   2.6410   2.6422   2.6422   2.6457
  2.6465   2.6603   2.6639   2.6683   2.6684   2.6769   2.6793   2.7154
  2.7159   2.7370   2.7387   2.7389   2.7447   2.7466   2.7550   2.8640
  2.8658   2.8953   2.8998   2.9048   2.9053   2.9174   2.9708   2.9725
  2.9867   3.0000   3.0011   3.0723   3.0753   3.0894   3.0896   3.0943
  3.1306   3.2531   3.2627   3.2655   3.2657   3.2663   3.2666   3.3123
  3.3173   3.3178   3.3326   3.3327   3.3832   3.3899   3.4314   3.4320
  3.4718   3.4769   3.4775   3.5091   3.5143   3.5153   3.6029   3.6081
  3.6083   3.6351   3.6355   3.6357
 
 Beta MOs
 -- Occupied --
******** -30.0521 -25.9198 -25.9192 -25.9192 -19.1102 -19.1102 -19.1101
-19.1100 -19.1100 -19.1099 -19.0938 -19.0938 -19.0937 -19.0937 -19.0937
-19.0936 -10.2776 -10.2775 -10.2774 -10.2774 -10.2773 -10.2773  -3.4096
 -2.1718  -2.1710  -2.1709  -1.0544  -1.0519  -1.0518  -1.0214  -1.0211
 -1.0210  -0.9670  -0.9622  -0.9621  -0.9409  -0.9400  -0.9399  -0.6087
 -0.6056  -0.6055  -0.4979  -0.4946  -0.4868  -0.4866  -0.4660  -0.4659
 -0.4333  -0.4333  -0.4311  -0.4258  -0.4257  -0.4241  -0.4083  -0.4054
 -0.4053  -0.3720  -0.3694  -0.3692  -0.3177  -0.3176  -0.3097  -0.3082
 -0.2925  -0.2924  -0.2848  -0.2847  -0.2659  -0.2653  -0.2591  -0.2588
 -0.2480  -0.2479  -0.2362  -0.2274  -0.2235  -0.2235
 -- Virtual --
 -0.0826  -0.0809  -0.0808  -0.0338  -0.0334  -0.0067  -0.0021  -0.0019
  0.0466   0.0676   0.0728   0.0731   0.1316   0.1340   0.1342   0.2397
  0.2509   0.2510   0.2637   0.2872   0.2896   0.2905   0.3199   0.3285
  0.3292   0.3432   0.3435   0.3436   0.3685   0.3690   0.3747   0.3865
  0.3872   0.4130   0.4639   0.4647   0.5102   0.5226   0.5229   0.5565
  0.5587   0.5597   0.5740   0.5892   0.5895   0.5901   0.5966   0.5967
  0.6084   0.6142   0.6151   0.6164   0.6549   0.6552   0.6945   0.6947
  0.6951   0.7638   0.7804   0.7807   0.8081   0.8676   0.8676   0.8700
  0.9154   0.9155   0.9424   0.9436   0.9662   0.9668   0.9989   0.9997
  1.0000   1.0125   1.0128   1.0130   1.0277   1.0280   1.0365   1.0373
  1.0589   1.0596   1.0870   1.0902   1.0905   1.1420   1.1581   1.1587
  1.1634   1.1637   1.1734   1.1774   1.1790   1.2139   1.2193   1.2211
  1.2657   1.2672   1.3066   1.3249   1.3423   1.3429   1.3657   1.3684
  1.3939   1.4179   1.4304   1.4327   1.4339   1.4910   1.4931   1.5686
  1.5928   1.5930   1.5973   1.6286   1.6294   1.6365   1.6412   1.6543
  1.6545   1.7177   1.7178   1.7324   1.7331   1.7495   1.7991   1.8016
  1.8043   1.8528   1.8594   1.8601   1.9173   1.9534   1.9535   1.9809
  2.0426   2.0430   2.0653   2.0800   2.0819   2.0929   2.1243   2.1249
  2.1691   2.1714   2.2776   2.3157   2.4269   2.4270   2.6159   2.6166
  2.6315   2.6432   2.6444   2.6445   2.6603   2.6608   2.6654   2.6718
  2.6721   2.6786   2.6812   2.6940   2.7255   2.7262   2.7390   2.7421
  2.7422   2.7528   2.7545   2.7729   2.8845   2.8859   2.9022   2.9037
  2.9092   2.9097   2.9873   2.9878   2.9909   3.0353   3.0384   3.0482
  3.0911   3.0911   3.1069   3.1641   3.1674   3.2351   3.2595   3.2682
  3.2692   3.2696   3.2743   3.2743   3.3161   3.3327   3.3330   3.3479
  3.3482   3.3876   3.4179   3.4467   3.4469   3.4932   3.4937   3.5143
  3.5496   3.5727   3.5742   3.6091   3.6143   3.6149   3.6401   3.6401
  3.6403
 --------------------------------------------------------------
 
          Ground-State Mulliken Net Atomic Charges

     Atom                 Charge (a.u.)    Spin (a.u.)
  --------------------------------------------------------
      1 Fe                    0.583948       4.244390
      2 O                    -0.379587       0.106566
      3 C                     0.122450      -0.000272
      4 C                     0.122412      -0.000292
      5 O                    -0.380518       0.106394
      6 O                    -0.339462       0.019763
      7 O                    -0.339510       0.019779
      8 O                    -0.380604       0.106334
      9 C                     0.122495      -0.000239
     10 C                     0.122235      -0.000228
     11 O                    -0.379912       0.106659
     12 O                    -0.339225       0.019773
     13 O                    -0.339196       0.019812
     14 O                    -0.380084       0.106008
     15 O                    -0.380218       0.106613
     16 C                     0.122367      -0.000261
     17 C                     0.121982      -0.000248
     18 O                    -0.340029       0.019671
     19 O                    -0.339544       0.019775
  --------------------------------------------------------
  Sum of atomic charges =    -3.000000
  Sum of spin   charges =     5.000000

 -----------------------------------------------------------------
                    Cartesian Multipole Moments
 -----------------------------------------------------------------
    Charge (ESU x 10^10)
               -14.4096
    Dipole Moment (Debye)
         X     -17.6861      Y     -13.9100      Z       5.5798
       Tot      23.1823
    Quadrupole Moments (Debye-Ang)
        XX    -215.9429     XY      -6.0582     YY    -205.5985
        XZ      23.8756     YZ      24.6617     ZZ    -175.0454
    Octopole Moments (Debye-Ang^2)
       XXX    -851.0334    XXY    -166.8903    XYY    -135.5407
       YYY    -632.1358    XXZ     176.1036    XYZ     -25.7715
       YYZ     101.9317    XZZ    -212.7959    YZZ    -138.3175
       ZZZ     165.6222
    Hexadecapole Moments (Debye-Ang^3)
      XXXX   -5527.2858   XXXY    -284.2483   XXYY   -1146.7502
      XYYY    -259.9465   YYYY   -4548.6946   XXXZ     977.8526
      XXYZ     217.5731   XYYZ      83.1166   YYYZ     834.9186
      XXZZ   -1243.8001   XYZZ     -58.3974   YYZZ    -881.6203
      XZZZ     777.5712   YZZZ     572.0634   ZZZZ   -2138.2595
 -----------------------------------------------------------------
 Calculating analytic gradient of the SCF energy
 Gradient of SCF Energy
            1           2           3           4           5           6
    1   0.0000857  -0.0322793  -0.0432275  -0.0542316   0.0202098   0.0905214
    2   0.0003878   0.0051535  -0.1823332   0.0316269   0.1036224   0.0380967
    3   0.0001090   0.1010747  -0.0328148   0.1795700   0.0112758  -0.2183745
            7           8           9          10          11          12
    1   0.0783744  -0.0914466   0.0552200  -0.1670506  -0.0299279   0.1927912
    2   0.2234531   0.0201669   0.1797204   0.0145174  -0.1017161  -0.0973054
    3  -0.0363563  -0.0502039   0.0300249  -0.0898476  -0.0070331   0.1032749
           13          14          15          16          17          18
    1   0.0009256   0.0969277   0.0373654   0.0465590   0.1633587  -0.1320172
    2  -0.2394585  -0.0135678  -0.0162220  -0.0227762  -0.0223209   0.0386475
    3   0.0010172   0.0421621  -0.0982383  -0.1829593   0.0955740   0.1959444
           19
    1  -0.2321581
    2   0.0403075
    3  -0.0441993
 Max gradient component =       2.395E-01
 RMS gradient           =       1.051E-01
 Computing fast CPCM-SWIG gradient
 Updating gradient with PCM contributions...
 -- total gradient after adding PCM contribution --
---------------------------------------------------
  Atom         X              Y              Z     
---------------------------------------------------
   1      -0.000039       0.000080      -0.000018
   2       0.000112       0.000060       0.000023
   3      -0.000037       0.000006       0.000009
   4      -0.000006      -0.000049      -0.000017
   5      -0.000120       0.000043      -0.000066
   6      -0.000014      -0.000006      -0.000025
   7       0.000026      -0.000038      -0.000005
   8      -0.000086      -0.000048       0.000080
   9       0.000015       0.000031       0.000011
  10      -0.000012       0.000006       0.000016
  11       0.000034      -0.000052       0.000177
  12      -0.000019      -0.000002       0.000017
  13       0.000003      -0.000016      -0.000010
  14       0.000021      -0.000100      -0.000123
  15       0.000079      -0.000008      -0.000018
  16       0.000023       0.000039       0.000074
  17       0.000009       0.000016      -0.000060
  18       0.000046       0.000030      -0.000059
  19      -0.000034       0.000007      -0.000008
---------------------------------------------------
 Number of fixed atoms: 0
 Gradient time:  CPU 1570.39 s  wall 86.52 s

     Step 23	:
        Energy is -2395.9326100998
                            Maximum         Tolerance       Converged?
         Gradient           1.74223255e-04	3.00000000e-04	true
         Displacement       4.86082928e-03	1.20000000e-03	false
         Energy change      9.43924078e-07	1.00000000e-06	true

	 Optimization Converged in 23 cycles

 *****************************************************
             End of BFGS Algorithm
 *****************************************************
		----------------------------------
		   Verification of Optimization
		----------------------------------

 Eigenvalues of Hessian in Optimization Verification
   0.00272246   0.01270317   0.01846717   0.08923299   0.09990294
   0.09997807   0.10000822   0.10002307   0.10003575   0.10004884
   0.10014360   0.10026487   0.10610140   0.14879472   0.16569721
   0.17069018   0.18834696   0.19281666   0.19893850   0.19983231
   0.19998131   0.20056758   0.20101417   0.20241168   0.20758024
   0.21744618   0.22781573   0.23313670   0.28231465   0.29873493
   0.31819159   0.41297715   0.43410040   0.44233434   0.45235197
   0.47428239   0.48238223   0.49724926   0.49913099   0.49985927
   0.50006185   0.50010014   0.50165625   0.50288495   0.51401720
   0.51564872   0.52163595   0.53211987   0.61527519   0.76901022
   0.89741004

 Found a minimum
		---------------------------------
		       End of Verification
		---------------------------------

 Final energy is -2395.932610099810

	******************************
	**  OPTIMIZATION CONVERGED  **
	******************************
 Adding empirical dispersion correction 
 ----------------------------------------------------------------
 Doing -D3(BJ) with
 s6  =   1.00000
 s8  =   1.98890
 a1  =   0.39810
 a2  =   4.42110
 -D3 energy without 3body term =     -0.0421788215 hartrees
 ----------------------------------------------------------------
             Standard Nuclear Orientation (Angstroms)
    I     Atom           X                Y                Z
 ----------------------------------------------------------------
    1      Fe      1.2239054304     0.9736807134    -0.3849132596
    2      O       0.6062047962    -0.9646341401    -0.3173740823
    3      C       0.0978894413    -1.3682850825     0.8062741676
    4      C       0.0403080867    -0.2580996747     1.9075681689
    5      O      -0.4962686269     1.5656685347    -1.2970065278
    6      O      -0.4362865669    -0.5012671078     3.0147174273
    7      O      -0.3141771274    -2.5028221547     1.0409917329
    8      O       1.4322976841     2.9946460212    -0.2660168346
    9      C       0.4742322400     3.7022701587    -0.7813490249
   10      C      -0.6820487395     2.8461832987    -1.3978900075
   11      O       0.5284756898     0.8826007606     1.5272110755
   12      O      -1.6543943064     3.3913431587    -1.9170222307
   13      O       0.4264119695     4.9305666035    -0.8117546226
   14      O       2.1336600603     0.6699628552    -2.1837848414
   15      O       3.1423055191     0.6799124651     0.2262868593
   16      C       3.4105471569     0.4421150139    -2.1497695561
   17      C       4.0133602367     0.4410326698    -0.7053960599
   18      O       4.1300687642     0.2399275059    -3.1265622755
   19      O       5.2111315921     0.2265754003    -0.5284427087
 ----------------------------------------------------------------
 Nuclear Repulsion Energy =        1936.37717522 hartrees
 There are       83 alpha and       78 beta electrons

Z-matrix Print:
$molecule
-3 6
Fe
O  1 2.034730
C  2 1.297626 1 116.346323
O  3 1.229618 2 125.638132 1 -179.258793 0
C  3 1.565120 2 113.824058 1 0.707319 0
O  5 1.229925 3 120.496430 2 179.395067 0
O  5 1.297502 3 113.787773 2 -0.580802 0
O  1 2.035034 2 166.801239 3 -49.490340 0
C  8 1.297848 1 116.285830 2 -50.436690 0
O  9 1.229696 8 125.690786 1 179.840244 0
C  9 1.565245 8 113.782635 1 -0.208300 0
O  11 1.229603 9 120.522969 8 179.843396 0
O  11 1.297763 9 113.799998 8 -0.113197 0
O  1 2.035480 2 97.970596 3 89.398932 0
C  14 1.297653 1 116.347787 2 90.178605 0
O  15 1.229661 14 125.700689 1 -179.151416 0
C  15 1.564825 14 113.774414 1 0.774158 0
O  17 1.229655 15 120.506088 14 178.967410 0
O  17 1.297758 15 113.796589 14 -0.979683 0
$end

 -----------------------------------------------------------------------
                  END OF GEOMETRY OPTIMIZER USING LIBOPT3               
 -----------------------------------------------------------------------
 Total job time:  6451.71s(wall), 108723.49s(cpu) 
 Mon Jun 17 20:00:54 2024

        *************************************************************
        *                                                           *
        *  Thank you very much for using Q-Chem.  Have a nice day.  *
        *                                                           *
        *************************************************************


