
Running Job 1 of 1 C_FePBstar_enol_ctL_2sextet_b3lypD3bj_ccpVDZ_pcmH2O_opt_2.in
qchem C_FePBstar_enol_ctL_2sextet_b3lypD3bj_ccpVDZ_pcmH2O_opt_2.in_208346.0 /scratch/qchem_scratch/qchem208346/ 0
/opt/qchem/6.0.2/exe/qcprog.exe_s C_FePBstar_enol_ctL_2sextet_b3lypD3bj_ccpVDZ_pcmH2O_opt_2.in_208346.0 /scratch/qchem_scratch/qchem208346/
                  Welcome to Q-Chem
     A Quantum Leap Into The Future Of Chemistry


 Q-Chem 6.0, Q-Chem, Inc., Pleasanton, CA (2022)

 E. Epifanovsky,  A. T. B. Gilbert,  Xintian Feng,  Joonho Lee,  Yuezhi Mao,  
 N. Mardirossian,  P. Pokhilko,  A. White,  M. Wormit,  M. P. Coons,  
 A. L. Dempwolff,  Zhengting Gan,  D. Hait,  P. R. Horn,  L. D. Jacobson,  
 I. Kaliman,  J. Kussmann,  A. W. Lange,  Ka Un Lao,  D. S. Levine,  Jie Liu,  
 S. C. McKenzie,  A. F. Morrison,  K. Nanda,  F. Plasser,  D. R. Rehn,  
 M. L. Vidal,  Zhi-Qiang You,  Ying Zhu,  B. Alam,  B. Albrecht,  
 A. Aldossary,  E. Alguire,  J. H. Andersen,  V. Athavale,  D. Barton,  
 K. Begam,  A. Behn,  N. Bellonzi,  Y. A. Bernard,  E. J. Berquist,  
 H. Burton,  A. Carreras,  K. Carter-Fenk,  Romit Chakraborty,  
 Chandrima Chakravarty,  Junhan Chen,  A. D. Chien,  K. D. Closser,  
 V. Cofer-Shabica,  L. Cunha,  S. Dasgupta,  Jia Deng,  M. de Wergifosse,  
 M. Diedenhofen,  Hainam Do,  S. Ehlert,  Po-Tung Fang,  S. Fatehi,  
 Qingguo Feng,  T. Friedhoff,  B. Ganoe,  J. Gayvert,  Qinghui Ge,  
 G. Gidofalvi,  M. Goldey,  J. Gomes,  C. Gonzalez-Espinoza,  S. Gulania,  
 A. Gunina,  J. A. Gyamfi,  M. W. D. Hanson-Heine,  P. H. P. Harbach,  
 A. W. Hauser,  M. F. Herbst,  M. Hernandez Vera,  M. Hodecker,  
 Z. C. Holden,  S. Houck,  Xunkun Huang,  Kerwin Hui,  B. C. Huynh,  
 K. Ikeda,  M. Ivanov,  Hyunjun Ji,  Zuxin Jin,  Hanjie Jiang,  B. Kaduk,  
 S. Kaehler,  R. Kang,  K. Khistyaev,  Jaehoon Kim,  Yongbin Kim,  
 P. Klunzinger,  Z. Koczor-Benda,  Joong Hoon Koh,  D. Kosenkov,  
 Saikiran Kotaru,  L. Koulias,  T. Kowalczyk,  C. M. Krauter,  K. Kue,  
 A. Kunitsa,  T. Kus,  A. Landau,  K. V. Lawler,  D. Lefrancois,  S. Lehtola,  
 Rain Li,  Shaozhi Li,  Yi-Pei Li,  Jiashu Liang,  M. Liebenthal,  
 Hung-Hsuan Lin,  You-Sheng Lin,  Fenglai Liu,  Kuan-Yu Liu,  
 M. Loipersberger,  A. Luenser,  C. Malbon,  A. Manjanath,  P. Manohar,  
 E. Mansoor,  S. F. Manzer,  Shan-Ping Mao,  A. V. Marenich,  T. Markovich,  
 S. Mason,  F. Matz,  S. A. Maurer,  P. F. McLaughlin,  M. F. S. J. Menger,  
 J.-M. Mewes,  S. A. Mewes,  P. Morgante,  Mohammad Mostafanejad,  
 J. W. Mullinax,  K. J. Oosterbaan,  G. Paran,  V. Parravicini,  
 Alexander C. Paul,  Suranjan K. Paul,  F. Pavosevic,  Zheng Pei,  S. Prager,  
 E. I. Proynov,  E. Ramos,  B. Rana,  A. E. Rask,  A. Rettig,  R. M. Richard,  
 F. Rob,  E. Rossomme,  T. Scheele,  M. Scheurer,  M. Schneider,  
 P. E. Schneider,  N. Sergueev,  S. M. Sharada,  Hengyuan Shen,  
 W. Skomorowski,  D. W. Small,  C. J. Stein,  Yingli Su,  Yu-Chuan Su,  
 E. J. Sundstrom,  Zhen Tao,  J. Thirman,  Hung-Yi Tsai,  T. Tsuchimochi,  
 N. M. Tubman,  C. Utku,  S. P. Veccham,  O. Vydrov,  J. Wenzel,  
 Jonathan Wong,  J. Witte,  A. Yamada,  Chou-Hsun Yang,  Kun Yao,  
 S. Yeganeh,  S. R. Yost,  A. Zech,  F. Zeller,  Igor Ying Zhang,  
 Xing Zhang,  Yu Zhang,  D. Zuev,  A. Aspuru-Guzik,  A. T. Bell,  
 N. A. Besley,  K. B. Bravaya,  B. R. Brooks,  D. Casanova,  Jeng-Da Chai,  
 Hsing-Ta Chen,  S. Coriani,  C. J. Cramer,  A. E. DePrince, III,  
 R. A. DiStasio Jr.,  A. Dreuw,  B. D. Dunietz,  T. R. Furlani,  
 W. A. Goddard III,  S. Grimme,  S. Hammes-Schiffer,  T. Head-Gordon,  
 W. J. Hehre,  Chao-Ping Hsu,  T.-C. Jagau,  Yousung Jung,  A. Klamt,  
 Jing Kong,  D. S. Lambrecht,  Xiangyuan Li,  WanZhen Liang,  N. J. Mayhall,  
 C. W. McCurdy,  J. B. Neaton,  T. Neudecker,  C. Ochsenfeld,  
 J. A. Parkhill,  R. Peverati,  V. A. Rassolov,  Haisheng Ren,  Yihan Shao,  
 L. V. Slipchenko,  R. P. Steele,  J. E. Subotnik,  A. J. W. Thom,  
 A. Tkatchenko,  D. G. Truhlar,  T. Van Voorhis,  Fan Wang,  
 T. A. Wesolowski,  K. B. Whaley,  H. L. Woodcock III,  P. M. Zimmerman,  
 S. Faraji,  P. M. W. Gill,  M. Head-Gordon,  J. M. Herbert,  A. I. Krylov

 Contributors to earlier versions of Q-Chem not listed above: 
 R. D. Adamson,  B. Austin,  R. Baer,  J. Baker,  G. J. O. Beran,  
 K. Brandhorst,  S. T. Brown,  E. F. C. Byrd,  Arup K. Chakraborty,  
 G. K. L. Chan,  Chun-Min Chang,  Yunqing Chen,  C.-L. Cheng,  
 Siu Hung Chien,  D. M. Chipman,  D. L. Crittenden,  H. Dachsel,  
 R. J. Doerksen,  A. D. Dutoi,  R. G. Edgar,  J. Fosso-Tande,  
 L. Fusti-Molnar,  D. Ghosh,  A. Ghysels,  A. Golubeva-Zadorozhnaya,  
 J. Gonthier,  M. S. Gordon,  S. R. Gwaltney,  G. Hawkins,  J. E. Herr,  
 A. Heyden,  S. Hirata,  E. G. Hohenstein,  G. Kedziora,  F. J. Keil,  
 C. Kelley,  Jihan Kim,  R. A. King,  R. Z. Khaliullin,  P. P. Korambath,  
 W. Kurlancheek,  A. Laurent,  A. M. Lee,  M. S. Lee,  S. V. Levchenko,  
 Ching Yeh Lin,  D. Liotard,  E. Livshits,  R. C. Lochan,  I. Lotan,  
 L. A. Martinez-Martinez,  P. E. Maslen,  N. Nair,  D. P. O'Neill,  
 D. Neuhauser,  E. Neuscamman,  C. M. Oana,  R. Olivares-Amaya,  R. Olson,  
 T. M. Perrine,  B. Peters,  P. A. Pieniazek,  A. Prociuk,  Y. M. Rhee,  
 J. Ritchie,  M. A. Rohrdanz,  E. Rosta,  N. J. Russ,  H. F. Schaefer III,  
 M. W. Schmidt,  N. E. Schultz,  S. Sharma,  N. Shenvi,  C. D. Sherrill,  
 A. C. Simmonett,  A. Sodt,  T. Stein,  D. Stuck,  K. S. Thanthiriwatte,  
 V. Vanovschi,  L. Vogt,  Tao Wang,  A. Warshel,  M. A. Watson,  
 C. F. Williams,  Q. Wu,  X. Xu,  Jun Yang,  W. Zhang,  Yan Zhao

   Please cite Q-Chem as follows:
  "Software for the frontiers of quantum chemistry:
   An overview of developments in the Q-Chem 5 package"
   J. Chem. Phys. 155, 084801 (2021)
   https://doi.org/10.1063/5.0055522 (open access)

 Q-Chem 6.0.2 for Intel X86 EM64T Linux

 Parts of Q-Chem use Armadillo 9.900.5 (Nocturnal Misbehaviour).
 http://arma.sourceforge.net/

 Q-Chem begins on Tue Jan  9 09:04:54 2024  

 Host: 
0

     Scratch files written to /scratch/qchem_scratch/qchem208346//
 Dec722 |scratch|qcdevops|jenkins|workspace|build_RNUM 8907   
 Processing $rem in /opt/qchem/6.0.2/config/preferences:
 Processing $rem in /home/cooksy_group/.qchemrc:
 Symmetry turned off for PCM/SM12/SMD calculation

 Checking the input file for inconsistencies... 	...done.

--------------------------------------------------------------
User input:
--------------------------------------------------------------
$molecule
-2 6
C    2.9534187   -1.4517159   -2.0379671
C    4.1756664   -1.1274644   -2.6290354
C    5.3816090   -1.7367435   -2.1967173
C    5.3268323   -2.7278654   -1.2045512
C    4.1139895   -3.0645554   -0.5914859
C    2.9218399   -2.4194447   -0.9638341
H    4.1677546   -0.3691393   -3.4171370
O    1.7929176   -0.8956838   -2.3656586
C    6.7277713   -1.2536191   -2.6017270
O    7.7684381   -1.8819880   -2.3505785
N    6.7735305   -0.0205939   -3.2127893
H    5.8964517    0.4897762   -3.2247820
C    7.7478129    1.8084183   -1.8724223
H    6.8312136    2.3991677   -2.0509768
H    8.5880490    2.5241359   -1.8426242
C    7.5941919    1.0993109   -0.5252138
H    8.5846594    0.7323504   -0.1758752
H    6.9623752    0.2069633   -0.6498466
N    6.9144988    1.9356771    0.4629998
H    7.4882500    2.7598407    0.6610281
C    5.8723725    2.0598164    2.7115574
H    5.7082401    1.4504515    3.6178931
H    6.4801606    2.9262679    3.0270726
C    6.6724618    1.2204154    1.7150818
H    7.6127314    0.8766003    2.2002158
H    6.1098893    0.3038161    1.4643621
C    4.5250573    2.5741798    2.1887222
H    4.0085864    3.1052524    3.0074315
H    4.6937925    3.3051050    1.3806932
C    3.6084001    1.4733376    1.6611791
H    4.0378253    1.0132824    0.7553959
N    2.2942370    2.0212039    1.3495904
H    2.1540306    3.0184928    1.4703415
C    1.3542834    1.3398678    0.6433713
O    1.6120106    0.1348716    0.3243434
C    0.1158841    2.0109262    0.3557663
H   -0.1112485    2.9250608    0.9062467
C   -2.2159664    2.1385180   -0.5173928
H   -2.7600379    1.6484976    0.3083359
H   -2.1539984    3.2107530   -0.2874191
C   -2.9959585    1.9768039   -1.8117944
O   -2.9129949    2.8050875   -2.7270171
N   -3.7925716    0.8833284   -1.8669185
C   -4.7142620    0.6069312   -2.9588481
H   -3.7687573    0.2259552   -1.0915462
C   -6.1682897    0.5797761   -2.4758776
H   -4.4530733   -0.3616924   -3.4146200
H   -4.5580449    1.3944098   -3.7093134
C   -6.6509854    1.9183169   -1.9127526
H   -6.8118114    0.2709514   -3.3192201
H   -6.2665595   -0.2086602   -1.7128273
C   -7.9624641    1.8188299   -1.1132088
H   -6.7908321    2.6414573   -2.7364398
H   -5.8671395    2.3413371   -1.2629337
H   -8.2778852    2.8395356   -0.8287336
H   -8.7572673    1.4133938   -1.7641368
C   -5.8704877   -1.7533048    0.6143416
C   -4.4774264   -2.5256204   -1.2716669
O   -6.9151915   -1.9038864   -0.0556616
C   -4.5291376   -1.9953939    0.0260765
C   -3.2602287   -2.6568973   -1.9477930
C   -3.3149851   -1.6358276    0.6711123
C   -2.0583350   -2.2563419   -1.3400971
C   -2.0838077   -1.7843816    0.0278277
H   -3.2986516   -1.2044244    1.6748259
O   -0.8856808   -2.2612911   -1.9417707
C   -0.8198035    1.5169559   -0.5402940
O   -0.6378010    0.5430241   -1.3619125
H    4.0838934   -3.7971872    0.2201773
O    1.7542287   -2.6144671   -0.3817922
H   -3.2311151   -3.0305232   -2.9750141
O   -0.9138430   -1.4702056    0.5678990
Fe    0.4486069   -1.1608182   -0.8998073
N   -7.9351611    1.0012540    0.1045704
H   -7.7839408    0.0219314   -0.1514535
N   -5.9286045   -1.3330136    1.9090429
H   -5.0577626   -1.1599814    2.3961710
C   -7.1335478   -0.7497252    2.4802211
H   -7.9794094   -1.1430526    1.9022865
H   -7.2440465   -1.0984587    3.5187280
C   -7.1253794    0.7865026    2.4456653
H   -8.0938030    1.1392198    2.8412425
H   -6.3386101    1.1591756    3.1254124
C   -6.8925719    1.3885585    1.0572584
H   -6.9024340    2.4885152    1.1473432
H   -5.8719824    1.1178784    0.7143224
H   -5.4147672   -2.7956256   -1.7576599
H    6.2603221   -3.1870803   -0.8765787
H    3.5060272    0.6632894    2.4066878
C    7.9428212    0.8399273   -3.0519101
H    8.1093108    1.4115803   -3.9786983
H    8.8110832    0.1857513   -2.8992924
$end

$rem
BASIS  =  gen
DFT_D  =  D3_BJ
GUI  =  2
JOB_TYPE  =  Optimization
METHOD  =  B3LYP
SCF_CONVERGENCE  =  8
SOLVENT_METHOD  =  PCM
$end

$pcm
THEORY  CPCM
$end

$solvent
DIELECTRIC  78.39
$end

$van_der_waals
26   2.44
$end

!----------------------------------------------------------------------
! Basis Set Exchange
! Basis set: cc-pVDZ
!----------------------------------------------------------------------

$rem
BASIS GEN
PURECART 11
$end

$basis
H     0
S   4   1.00
1.301000D+01           1.968500D-02
1.962000D+00           1.379770D-01
4.446000D-01           4.781480D-01
1.220000D-01           5.012400D-01
S   1   1.00
1.220000D-01           1.000000D+00
P   1   1.00
7.270000D-01           1.0000000
****
C     0
S   9   1.00
6.665000D+03           6.920000D-04
1.000000D+03           5.329000D-03
2.280000D+02           2.707700D-02
6.471000D+01           1.017180D-01
2.106000D+01           2.747400D-01
7.495000D+00           4.485640D-01
2.797000D+00           2.850740D-01
5.215000D-01           1.520400D-02
1.596000D-01          -3.191000D-03
S   9   1.00
6.665000D+03          -1.460000D-04
1.000000D+03          -1.154000D-03
2.280000D+02          -5.725000D-03
6.471000D+01          -2.331200D-02
2.106000D+01          -6.395500D-02
7.495000D+00          -1.499810D-01
2.797000D+00          -1.272620D-01
5.215000D-01           5.445290D-01
1.596000D-01           5.804960D-01
S   1   1.00
1.596000D-01           1.000000D+00
P   4   1.00
9.439000D+00           3.810900D-02
2.002000D+00           2.094800D-01
5.456000D-01           5.085570D-01
1.517000D-01           4.688420D-01
P   1   1.00
1.517000D-01           1.000000D+00
D   1   1.00
5.500000D-01           1.0000000
****
N     0
S   9   1.00
9.046000D+03           7.000000D-04
1.357000D+03           5.389000D-03
3.093000D+02           2.740600D-02
8.773000D+01           1.032070D-01
2.856000D+01           2.787230D-01
1.021000D+01           4.485400D-01
3.838000D+00           2.782380D-01
7.466000D-01           1.544000D-02
2.248000D-01          -2.864000D-03
S   9   1.00
9.046000D+03          -1.530000D-04
1.357000D+03          -1.208000D-03
3.093000D+02          -5.992000D-03
8.773000D+01          -2.454400D-02
2.856000D+01          -6.745900D-02
1.021000D+01          -1.580780D-01
3.838000D+00          -1.218310D-01
7.466000D-01           5.490030D-01
2.248000D-01           5.788150D-01
S   1   1.00
2.248000D-01           1.000000D+00
P   4   1.00
1.355000D+01           3.991900D-02
2.917000D+00           2.171690D-01
7.973000D-01           5.103190D-01
2.185000D-01           4.622140D-01
P   1   1.00
2.185000D-01           1.000000D+00
D   1   1.00
8.170000D-01           1.0000000
****
O     0
S   9   1.00
1.172000D+04           7.100000D-04
1.759000D+03           5.470000D-03
4.008000D+02           2.783700D-02
1.137000D+02           1.048000D-01
3.703000D+01           2.830620D-01
1.327000D+01           4.487190D-01
5.025000D+00           2.709520D-01
1.013000D+00           1.545800D-02
3.023000D-01          -2.585000D-03
S   9   1.00
1.172000D+04          -1.600000D-04
1.759000D+03          -1.263000D-03
4.008000D+02          -6.267000D-03
1.137000D+02          -2.571600D-02
3.703000D+01          -7.092400D-02
1.327000D+01          -1.654110D-01
5.025000D+00          -1.169550D-01
1.013000D+00           5.573680D-01
3.023000D-01           5.727590D-01
S   1   1.00
3.023000D-01           1.000000D+00
P   4   1.00
1.770000D+01           4.301800D-02
3.854000D+00           2.289130D-01
1.046000D+00           5.087280D-01
2.753000D-01           4.605310D-01
P   1   1.00
2.753000D-01           1.000000D+00
D   1   1.00
1.185000D+00           1.0000000
****
Fe     0
S   20   1.00
4.316265D+06           8.048803D-06
6.463424D+05           6.258306D-05
1.470897D+05           3.290239D-04
4.166152D+04           1.387355D-03
1.359077D+04           5.023256D-03
4.905750D+03           1.610140D-02
1.912746D+03           4.590034D-02
7.926043D+02           1.136154D-01
3.448065D+02           2.283869D-01
1.558999D+02           3.221159D-01
7.223091D+01           2.383661D-01
3.272506D+01           7.404667D-02
1.566762D+01           9.214197D-02
7.503483D+00           9.339790D-02
3.312223D+00           1.573965D-02
1.558471D+00          -4.186682D-04
6.839140D-01           5.376318D-05
1.467570D-01          -3.816654D-05
7.058300D-02           4.319603D-05
3.144900D-02          -3.401019D-06
S   20   1.00
4.316265D+06          -4.155954D-06
6.463424D+05          -3.231401D-05
1.470897D+05          -1.699525D-04
4.166152D+04          -7.171369D-04
1.359077D+04          -2.603625D-03
4.905750D+03          -8.399109D-03
1.912746D+03          -2.434109D-02
7.926043D+02          -6.251948D-02
3.448065D+02          -1.365929D-01
1.558999D+02          -2.312707D-01
7.223091D+01          -2.383734D-01
3.272506D+01           3.123837D-02
1.566762D+01           5.086818D-01
7.503483D+00           4.987695D-01
3.312223D+00           9.033552D-02
1.558471D+00          -6.005337D-03
6.839140D-01           2.312454D-04
1.467570D-01          -5.643680D-04
7.058300D-02           4.992260D-04
3.144900D-02          -1.015293D-04
S   20   1.00
4.316265D+06           9.532178D-07
6.463424D+05           7.414605D-06
1.470897D+05           3.898393D-05
4.166152D+04           1.647152D-04
1.359077D+04           5.985980D-04
4.905750D+03           1.942390D-03
1.912746D+03           5.687237D-03
7.926043D+02           1.501329D-02
3.448065D+02           3.452455D-02
1.558999D+02           6.495820D-02
7.223091D+01           7.716194D-02
3.272506D+01          -1.873411D-02
1.566762D+01          -3.009185D-01
7.503483D+00          -4.554661D-01
3.312223D+00           1.286463D-01
1.558471D+00           7.183316D-01
6.839140D-01           4.051743D-01
1.467570D-01           2.168227D-02
7.058300D-02          -8.343566D-03
3.144900D-02           3.658979D-03
S   20   1.00
4.316265D+06          -2.063008D-07
6.463424D+05          -1.604169D-06
1.470897D+05          -8.438437D-06
4.166152D+04          -3.563151D-05
1.359077D+04          -1.295998D-04
4.905750D+03          -4.201534D-04
1.912746D+03          -1.231954D-03
7.926043D+02          -3.248922D-03
3.448065D+02          -7.493717D-03
1.558999D+02          -1.410102D-02
7.223091D+01          -1.691600D-02
3.272506D+01           4.218996D-03
1.566762D+01           6.833810D-02
7.503483D+00           1.098201D-01
3.312223D+00          -4.009005D-02
1.558471D+00          -2.174739D-01
6.839140D-01          -2.465135D-01
1.467570D-01           2.731435D-01
7.058300D-02           5.748321D-01
3.144900D-02           3.012713D-01
S   20   1.00
4.316265D+06          -4.009367D-07
6.463424D+05          -3.189255D-06
1.470897D+05          -1.623079D-05
4.166152D+04          -7.157920D-05
1.359077D+04          -2.463958D-04
4.905750D+03          -8.544907D-04
1.912746D+03          -2.307593D-03
7.926043D+02          -6.728292D-03
3.448065D+02          -1.366165D-02
1.558999D+02          -3.062240D-02
7.223091D+01          -2.631137D-02
3.272506D+01          -9.760183D-03
1.566762D+01           1.801906D-01
7.503483D+00           1.529634D-01
3.312223D+00           5.505413D-02
1.558471D+00          -9.551364D-01
6.839140D-01           2.586813D-01
1.467570D-01           1.834049D+00
7.058300D-02          -9.333240D-01
3.144900D-02          -6.981605D-01
S   1   1.00
3.144900D-02           1.000000D+00
P   16   1.00
1.774569D+04           4.100000D-05
4.200721D+03           3.690000D-04
1.364429D+03           2.129000D-03
5.220806D+02           9.369000D-03
2.214595D+02           3.309700D-02
1.009096D+02           9.443100D-02
4.840115D+01           2.080770D-01
2.398536D+01           3.323330D-01
1.218250D+01           3.329870D-01
6.242298D+00           1.568430D-01
3.110944D+00           2.154900D-02
1.509958D+00          -2.095000D-03
7.108450D-01          -1.739000D-03
2.731900D-01          -3.000000D-04
1.042330D-01           2.900000D-05
3.829100D-02          -1.100000D-05
P   16   1.00
1.774569D+04          -1.500000D-05
4.200721D+03          -1.300000D-04
1.364429D+03          -7.510000D-04
5.220806D+02          -3.329000D-03
2.214595D+02          -1.191200D-02
1.009096D+02          -3.493300D-02
4.840115D+01          -7.998900D-02
2.398536D+01          -1.346360D-01
1.218250D+01          -1.385980D-01
6.242298D+00           3.027800D-02
3.110944D+00           3.332160D-01
1.509958D+00           4.561530D-01
7.108450D-01           2.850510D-01
2.731900D-01           4.614400D-02
1.042330D-01          -3.249000D-03
3.829100D-02           1.357000D-03
P   16   1.00
1.774569D+04           5.000000D-06
4.200721D+03           4.200000D-05
1.364429D+03           2.410000D-04
5.220806D+02           1.085000D-03
2.214595D+02           3.831000D-03
1.009096D+02           1.142300D-02
4.840115D+01           2.579200D-02
2.398536D+01           4.481800D-02
1.218250D+01           4.459800D-02
6.242298D+00          -1.117700D-02
3.110944D+00          -1.381340D-01
1.509958D+00          -1.882850D-01
7.108450D-01          -1.073990D-01
2.731900D-01           4.448630D-01
1.042330D-01           6.402390D-01
3.829100D-02           6.445700D-02
P   16   1.00
1.774569D+04           3.000000D-06
4.200721D+03           2.900000D-05
1.364429D+03           1.650000D-04
5.220806D+02           7.340000D-04
2.214595D+02           2.626000D-03
1.009096D+02           7.725000D-03
4.840115D+01           1.773300D-02
2.398536D+01           3.005500D-02
1.218250D+01           3.109400D-02
6.242298D+00          -1.004800D-02
3.110944D+00          -8.830600D-02
1.509958D+00          -1.298240D-01
7.108450D-01          -7.693700D-02
2.731900D-01           2.126610D-01
1.042330D-01           5.730610D-01
3.829100D-02           3.696510D-01
P   1   1.00
3.829100D-02           1.000000D+00
D   8   1.00
1.133440D+02           3.530000D-03
3.364140D+01           2.578400D-02
1.233100D+01           9.911900D-02
4.994780D+00           2.390730D-01
2.072800D+00           3.571990D-01
8.307530D-01           3.621880D-01
3.091780D-01           2.364610D-01
1.001300D-01           6.011800D-02
D   8   1.00
1.133440D+02          -3.890000D-03
3.364140D+01          -2.844200D-02
1.233100D+01          -1.124290D-01
4.994780D+00          -2.742570D-01
2.072800D+00          -3.155460D-01
8.307530D-01           5.710900D-02
3.091780D-01           5.636040D-01
1.001300D-01           3.846370D-01
D   1   1.00
1.001300D-01           1.000000D+00
F   2   1.00
3.224300D+00           4.222490D-01
7.758000D-01           7.714680D-01
****
$end


--------------------------------------------------------------
 Adding empirical dispersion correction 
 ----------------------------------------------------------------
 Doing -D3(BJ) with
 s6  =   1.00000
 s8  =   1.98890
 a1  =   0.39810
 a2  =   4.42110
 -D3 energy without 3body term =     -0.2223314764 hartrees
 ----------------------------------------------------------------
             Standard Nuclear Orientation (Angstroms)
    I     Atom           X                Y                Z
 ----------------------------------------------------------------
    1      C       2.9534187000    -1.4517159000    -2.0379671000
    2      C       4.1756664000    -1.1274644000    -2.6290354000
    3      C       5.3816090000    -1.7367435000    -2.1967173000
    4      C       5.3268323000    -2.7278654000    -1.2045512000
    5      C       4.1139895000    -3.0645554000    -0.5914859000
    6      C       2.9218399000    -2.4194447000    -0.9638341000
    7      H       4.1677546000    -0.3691393000    -3.4171370000
    8      O       1.7929176000    -0.8956838000    -2.3656586000
    9      C       6.7277713000    -1.2536191000    -2.6017270000
   10      O       7.7684381000    -1.8819880000    -2.3505785000
   11      N       6.7735305000    -0.0205939000    -3.2127893000
   12      H       5.8964517000     0.4897762000    -3.2247820000
   13      C       7.7478129000     1.8084183000    -1.8724223000
   14      H       6.8312136000     2.3991677000    -2.0509768000
   15      H       8.5880490000     2.5241359000    -1.8426242000
   16      C       7.5941919000     1.0993109000    -0.5252138000
   17      H       8.5846594000     0.7323504000    -0.1758752000
   18      H       6.9623752000     0.2069633000    -0.6498466000
   19      N       6.9144988000     1.9356771000     0.4629998000
   20      H       7.4882500000     2.7598407000     0.6610281000
   21      C       5.8723725000     2.0598164000     2.7115574000
   22      H       5.7082401000     1.4504515000     3.6178931000
   23      H       6.4801606000     2.9262679000     3.0270726000
   24      C       6.6724618000     1.2204154000     1.7150818000
   25      H       7.6127314000     0.8766003000     2.2002158000
   26      H       6.1098893000     0.3038161000     1.4643621000
   27      C       4.5250573000     2.5741798000     2.1887222000
   28      H       4.0085864000     3.1052524000     3.0074315000
   29      H       4.6937925000     3.3051050000     1.3806932000
   30      C       3.6084001000     1.4733376000     1.6611791000
   31      H       4.0378253000     1.0132824000     0.7553959000
   32      N       2.2942370000     2.0212039000     1.3495904000
   33      H       2.1540306000     3.0184928000     1.4703415000
   34      C       1.3542834000     1.3398678000     0.6433713000
   35      O       1.6120106000     0.1348716000     0.3243434000
   36      C       0.1158841000     2.0109262000     0.3557663000
   37      H      -0.1112485000     2.9250608000     0.9062467000
   38      C      -2.2159664000     2.1385180000    -0.5173928000
   39      H      -2.7600379000     1.6484976000     0.3083359000
   40      H      -2.1539984000     3.2107530000    -0.2874191000
   41      C      -2.9959585000     1.9768039000    -1.8117944000
   42      O      -2.9129949000     2.8050875000    -2.7270171000
   43      N      -3.7925716000     0.8833284000    -1.8669185000
   44      C      -4.7142620000     0.6069312000    -2.9588481000
   45      H      -3.7687573000     0.2259552000    -1.0915462000
   46      C      -6.1682897000     0.5797761000    -2.4758776000
   47      H      -4.4530733000    -0.3616924000    -3.4146200000
   48      H      -4.5580449000     1.3944098000    -3.7093134000
   49      C      -6.6509854000     1.9183169000    -1.9127526000
   50      H      -6.8118114000     0.2709514000    -3.3192201000
   51      H      -6.2665595000    -0.2086602000    -1.7128273000
   52      C      -7.9624641000     1.8188299000    -1.1132088000
   53      H      -6.7908321000     2.6414573000    -2.7364398000
   54      H      -5.8671395000     2.3413371000    -1.2629337000
   55      H      -8.2778852000     2.8395356000    -0.8287336000
   56      H      -8.7572673000     1.4133938000    -1.7641368000
   57      C      -5.8704877000    -1.7533048000     0.6143416000
   58      C      -4.4774264000    -2.5256204000    -1.2716669000
   59      O      -6.9151915000    -1.9038864000    -0.0556616000
   60      C      -4.5291376000    -1.9953939000     0.0260765000
   61      C      -3.2602287000    -2.6568973000    -1.9477930000
   62      C      -3.3149851000    -1.6358276000     0.6711123000
   63      C      -2.0583350000    -2.2563419000    -1.3400971000
   64      C      -2.0838077000    -1.7843816000     0.0278277000
   65      H      -3.2986516000    -1.2044244000     1.6748259000
   66      O      -0.8856808000    -2.2612911000    -1.9417707000
   67      C      -0.8198035000     1.5169559000    -0.5402940000
   68      O      -0.6378010000     0.5430241000    -1.3619125000
   69      H       4.0838934000    -3.7971872000     0.2201773000
   70      O       1.7542287000    -2.6144671000    -0.3817922000
   71      H      -3.2311151000    -3.0305232000    -2.9750141000
   72      O      -0.9138430000    -1.4702056000     0.5678990000
   73      Fe      0.4486069000    -1.1608182000    -0.8998073000
   74      N      -7.9351611000     1.0012540000     0.1045704000
   75      H      -7.7839408000     0.0219314000    -0.1514535000
   76      N      -5.9286045000    -1.3330136000     1.9090429000
   77      H      -5.0577626000    -1.1599814000     2.3961710000
   78      C      -7.1335478000    -0.7497252000     2.4802211000
   79      H      -7.9794094000    -1.1430526000     1.9022865000
   80      H      -7.2440465000    -1.0984587000     3.5187280000
   81      C      -7.1253794000     0.7865026000     2.4456653000
   82      H      -8.0938030000     1.1392198000     2.8412425000
   83      H      -6.3386101000     1.1591756000     3.1254124000
   84      C      -6.8925719000     1.3885585000     1.0572584000
   85      H      -6.9024340000     2.4885152000     1.1473432000
   86      H      -5.8719824000     1.1178784000     0.7143224000
   87      H      -5.4147672000    -2.7956256000    -1.7576599000
   88      H       6.2603221000    -3.1870803000    -0.8765787000
   89      H       3.5060272000     0.6632894000     2.4066878000
   90      C       7.9428212000     0.8399273000    -3.0519101000
   91      H       8.1093108000     1.4115803000    -3.9786983000
   92      H       8.8110832000     0.1857513000    -2.8992924000
 ----------------------------------------------------------------
 Nuclear Repulsion Energy =        7399.76160367 hartrees
 There are      194 alpha and      189 beta electrons
 Requested basis set is non-standard
 There are 432 shells and 930 basis functions

 Total QAlloc Memory Limit   8000 MB
 Mega-Array Size       188 MB
 MEM_STATIC part       192 MB

 -----------------------------------------------------------------------
                STARTING GEOMETRY OPTIMIZER USING LIBOPT3
                by Peter F. McLaughlin, Yu Zhang, Evgeny Epifanovsky
 -----------------------------------------------------------------------

              Initial Energy and Gradient Calculation
   -- Checking Topology for Ill-Behaving Coordinates --

 -------------------------------------------
   Coordinate       |  Removed | Additions 
 -------------------------------------------
	Bonds                     0          0
	Angles                    3          0
	Torsions                  6          6
	Co-Linear Type5s          0          6
	Co-Linear Type6s          0          6
 -------------------------------------------

 ** Ill-Behaving Topology Definitions (No action needed.) **

  Ill-Defined Angles Removed: 
   8  73  72,  35  73  66,  68  73  70

  Ill-Defined Torsions Removed: 
   1   8  73  72,   6  70  73  68,  34  35  73  66,  63  66  73  35,  64  72  73   8
  67  68  73  70

     Done Checking Topology
 Adding empirical dispersion correction 
 ----------------------------------------------------------------
 Doing -D3(BJ) with
 s6  =   1.00000
 s8  =   1.98890
 a1  =   0.39810
 a2  =   4.42110
 -D3 energy without 3body term =     -0.2223314764 hartrees
 ----------------------------------------------------------------
             Standard Nuclear Orientation (Angstroms)
    I     Atom           X                Y                Z
 ----------------------------------------------------------------
    1      C       2.9534187000    -1.4517159000    -2.0379671000
    2      C       4.1756664000    -1.1274644000    -2.6290354000
    3      C       5.3816090000    -1.7367435000    -2.1967173000
    4      C       5.3268323000    -2.7278654000    -1.2045512000
    5      C       4.1139895000    -3.0645554000    -0.5914859000
    6      C       2.9218399000    -2.4194447000    -0.9638341000
    7      H       4.1677546000    -0.3691393000    -3.4171370000
    8      O       1.7929176000    -0.8956838000    -2.3656586000
    9      C       6.7277713000    -1.2536191000    -2.6017270000
   10      O       7.7684381000    -1.8819880000    -2.3505785000
   11      N       6.7735305000    -0.0205939000    -3.2127893000
   12      H       5.8964517000     0.4897762000    -3.2247820000
   13      C       7.7478129000     1.8084183000    -1.8724223000
   14      H       6.8312136000     2.3991677000    -2.0509768000
   15      H       8.5880490000     2.5241359000    -1.8426242000
   16      C       7.5941919000     1.0993109000    -0.5252138000
   17      H       8.5846594000     0.7323504000    -0.1758752000
   18      H       6.9623752000     0.2069633000    -0.6498466000
   19      N       6.9144988000     1.9356771000     0.4629998000
   20      H       7.4882500000     2.7598407000     0.6610281000
   21      C       5.8723725000     2.0598164000     2.7115574000
   22      H       5.7082401000     1.4504515000     3.6178931000
   23      H       6.4801606000     2.9262679000     3.0270726000
   24      C       6.6724618000     1.2204154000     1.7150818000
   25      H       7.6127314000     0.8766003000     2.2002158000
   26      H       6.1098893000     0.3038161000     1.4643621000
   27      C       4.5250573000     2.5741798000     2.1887222000
   28      H       4.0085864000     3.1052524000     3.0074315000
   29      H       4.6937925000     3.3051050000     1.3806932000
   30      C       3.6084001000     1.4733376000     1.6611791000
   31      H       4.0378253000     1.0132824000     0.7553959000
   32      N       2.2942370000     2.0212039000     1.3495904000
   33      H       2.1540306000     3.0184928000     1.4703415000
   34      C       1.3542834000     1.3398678000     0.6433713000
   35      O       1.6120106000     0.1348716000     0.3243434000
   36      C       0.1158841000     2.0109262000     0.3557663000
   37      H      -0.1112485000     2.9250608000     0.9062467000
   38      C      -2.2159664000     2.1385180000    -0.5173928000
   39      H      -2.7600379000     1.6484976000     0.3083359000
   40      H      -2.1539984000     3.2107530000    -0.2874191000
   41      C      -2.9959585000     1.9768039000    -1.8117944000
   42      O      -2.9129949000     2.8050875000    -2.7270171000
   43      N      -3.7925716000     0.8833284000    -1.8669185000
   44      C      -4.7142620000     0.6069312000    -2.9588481000
   45      H      -3.7687573000     0.2259552000    -1.0915462000
   46      C      -6.1682897000     0.5797761000    -2.4758776000
   47      H      -4.4530733000    -0.3616924000    -3.4146200000
   48      H      -4.5580449000     1.3944098000    -3.7093134000
   49      C      -6.6509854000     1.9183169000    -1.9127526000
   50      H      -6.8118114000     0.2709514000    -3.3192201000
   51      H      -6.2665595000    -0.2086602000    -1.7128273000
   52      C      -7.9624641000     1.8188299000    -1.1132088000
   53      H      -6.7908321000     2.6414573000    -2.7364398000
   54      H      -5.8671395000     2.3413371000    -1.2629337000
   55      H      -8.2778852000     2.8395356000    -0.8287336000
   56      H      -8.7572673000     1.4133938000    -1.7641368000
   57      C      -5.8704877000    -1.7533048000     0.6143416000
   58      C      -4.4774264000    -2.5256204000    -1.2716669000
   59      O      -6.9151915000    -1.9038864000    -0.0556616000
   60      C      -4.5291376000    -1.9953939000     0.0260765000
   61      C      -3.2602287000    -2.6568973000    -1.9477930000
   62      C      -3.3149851000    -1.6358276000     0.6711123000
   63      C      -2.0583350000    -2.2563419000    -1.3400971000
   64      C      -2.0838077000    -1.7843816000     0.0278277000
   65      H      -3.2986516000    -1.2044244000     1.6748259000
   66      O      -0.8856808000    -2.2612911000    -1.9417707000
   67      C      -0.8198035000     1.5169559000    -0.5402940000
   68      O      -0.6378010000     0.5430241000    -1.3619125000
   69      H       4.0838934000    -3.7971872000     0.2201773000
   70      O       1.7542287000    -2.6144671000    -0.3817922000
   71      H      -3.2311151000    -3.0305232000    -2.9750141000
   72      O      -0.9138430000    -1.4702056000     0.5678990000
   73      Fe      0.4486069000    -1.1608182000    -0.8998073000
   74      N      -7.9351611000     1.0012540000     0.1045704000
   75      H      -7.7839408000     0.0219314000    -0.1514535000
   76      N      -5.9286045000    -1.3330136000     1.9090429000
   77      H      -5.0577626000    -1.1599814000     2.3961710000
   78      C      -7.1335478000    -0.7497252000     2.4802211000
   79      H      -7.9794094000    -1.1430526000     1.9022865000
   80      H      -7.2440465000    -1.0984587000     3.5187280000
   81      C      -7.1253794000     0.7865026000     2.4456653000
   82      H      -8.0938030000     1.1392198000     2.8412425000
   83      H      -6.3386101000     1.1591756000     3.1254124000
   84      C      -6.8925719000     1.3885585000     1.0572584000
   85      H      -6.9024340000     2.4885152000     1.1473432000
   86      H      -5.8719824000     1.1178784000     0.7143224000
   87      H      -5.4147672000    -2.7956256000    -1.7576599000
   88      H       6.2603221000    -3.1870803000    -0.8765787000
   89      H       3.5060272000     0.6632894000     2.4066878000
   90      C       7.9428212000     0.8399273000    -3.0519101000
   91      H       8.1093108000     1.4115803000    -3.9786983000
   92      H       8.8110832000     0.1857513000    -2.8992924000
 ----------------------------------------------------------------
 Nuclear Repulsion Energy =        7399.76160367 hartrees
 There are      194 alpha and      189 beta electrons
 Using C-PCM dielectric factor f(eps) = (eps-1)/eps = 0.987243
No default van der Waals radius is available for Z = 26
	Found R = 2.4400 A in the $van_der_waals section
 Discretize the solute cavity surface with Lebedev spheres
	Using 110 Lebedev grid points for each H atom
	Using 194 Lebedev grid points for other atoms
	Atomic van der Waals radii (Bondi set) will be scaled by 1.20
 Using smooth SwiG surface discretization
 Remove points where switching function is < 1.0e-08
 Keep 5420 surface tesserae and discard 8816 interior tesserae
 Molecular Surface Area = 669.553 Angst**2

 Requested basis set is non-standard
 There are 432 shells and 930 basis functions
 A cutoff of  1.0D-12 yielded  57234 shell pairs
 There are    247084 function pairs (    273221 Cartesian)
 Smallest overlap matrix eigenvalue = 2.17E-04

 Scale SEOQF with 1.000000e-02/1.000000e-01/1.000000e-01

 Standard Electronic Orientation quadrupole field applied
 Nucleus-field energy     =    -0.0000000085 hartrees
 ================ Generating on-the-fly SAD Guess ================
 Attempting to make child job directory: /scratch/qchem_scratch/qchem208346//Frg1/
 Attempting to make child job directory: /scratch/qchem_scratch/qchem208346//Frg2/
 Attempting to make child job directory: /scratch/qchem_scratch/qchem208346//Frg3/
 Attempting to make child job directory: /scratch/qchem_scratch/qchem208346//Frg4/
 Attempting to make child job directory: /scratch/qchem_scratch/qchem208346//Frg5/
 Creating input file /scratch/qchem_scratch/qchem208346/Frg1.input
 using default PutDataFrgm: nothing
 calling putenv with: QCSCRATCH=/scratch/qchem_scratch/qchem208346/ 
 Spawning Job For Fragment 0
 Done Job For Fragment 0
 calling putenv with: QCSCRATCH=/scratch/qchem_scratch 
 calling putenv with: QCTHREADS=16 
 Creating input file /scratch/qchem_scratch/qchem208346/Frg2.input
 using default PutDataFrgm: nothing
 calling putenv with: QCSCRATCH=/scratch/qchem_scratch/qchem208346/ 
 Spawning Job For Fragment 1
 Done Job For Fragment 1
 calling putenv with: QCSCRATCH=/scratch/qchem_scratch 
 calling putenv with: QCTHREADS=16 
 Creating input file /scratch/qchem_scratch/qchem208346/Frg3.input
 using default PutDataFrgm: nothing
 calling putenv with: QCSCRATCH=/scratch/qchem_scratch/qchem208346/ 
 Spawning Job For Fragment 2
 Done Job For Fragment 2
 calling putenv with: QCSCRATCH=/scratch/qchem_scratch 
 calling putenv with: QCTHREADS=16 
 Creating input file /scratch/qchem_scratch/qchem208346/Frg4.input
 using default PutDataFrgm: nothing
 calling putenv with: QCSCRATCH=/scratch/qchem_scratch/qchem208346/ 
 Spawning Job For Fragment 3
 Done Job For Fragment 3
 calling putenv with: QCSCRATCH=/scratch/qchem_scratch 
 calling putenv with: QCTHREADS=16 
 Creating input file /scratch/qchem_scratch/qchem208346/Frg5.input
 using default PutDataFrgm: nothing
 calling putenv with: QCSCRATCH=/scratch/qchem_scratch/qchem208346/ 
 Spawning Job For Fragment 4
 Done Job For Fragment 4
 calling putenv with: QCSCRATCH=/scratch/qchem_scratch 
 calling putenv with: QCTHREADS=16 
 Time for running child jobs:  CPU 0.03 s  wall 61.67 s
 ============= Method Specific SAD Guess Constructed =============
 Guess from on-the-fly superposition of atomic densities
 Warning: Energy on first SCF cycle will be non-variational

 -----------------------------------------------------------------------
  General SCF calculation program by
  Eric Jon Sundstrom, Paul Horn, Yuezhi Mao, Dmitri Zuev, Alec White,
  David Stuck, Shaama M.S., Shane Yost, Joonho Lee, David Small,
  Daniel Levine, Susi Lehtola, Hugh Burton, Evgeny Epifanovsky,
  Bang C. Huynh
 -----------------------------------------------------------------------
 Exchange:     0.2000 Hartree-Fock + 0.0800 Slater + 0.7200 B88
 Correlation:  0.1900 VWN1RPA + 0.8100 LYP
 Using SG-1 standard quadrature grid
 Dispersion:   Grimme D3
 using 16 threads for integral computing
 -------------------------------------------------------
 OpenMP Integral computing Module                
 Release: version 1.0, May 2013, Q-Chem Inc. Pittsburgh 
 -------------------------------------------------------
 C-PCM solvent model [f = (eps-1)/eps], solve by matrix inversion
 A unrestricted SCF calculation will be
 performed using DIIS
 SCF converges when DIIS error is below 1.0e-08
 ---------------------------------------
  Cycle       Energy         DIIS error
 ---------------------------------------
    1   -3572.8304637872      1.45e-02  
    2   -3552.3708208919      1.66e-03  
    3   -3550.2533096305      3.37e-03  
    4   -3550.3253976234      2.80e-03  
    5   -3553.3429696378      8.44e-04  
    6   -3553.5458143390      3.64e-04  
    7   -3553.5898986007      1.38e-04  
    8   -3553.5944081082      9.58e-05  
    9   -3553.5961915178      6.23e-05  
   10   -3553.5971937592      3.22e-05  
   11   -3553.5975486154      8.67e-06  
   12   -3553.5975719711      3.84e-06  
   13   -3553.5975779391      1.22e-06  
   14   -3553.5975787582      8.24e-07  
   15   -3553.5975791059      4.70e-07  
   16   -3553.5975791956      2.26e-07  
   17   -3553.5975792194      8.44e-08  
   18   -3553.5975792241      3.74e-08  
   19   -3553.5975792254      2.04e-08  
   20   -3553.5975792258      1.02e-08  
   21   -3553.5975792261      5.45e-09  Convergence criterion met
 ---------------------------------------
 SCF time:   CPU 42915.06s  wall 3153.00s 
<S^2> =          8.758250672

************** Final PCM Free Energy Summary **************
 G_electrostatic  =      -0.28783951 hartree =    -180.62201634 kcal/mol
 G_cavitation     =       0.00000000 hartree =       0.00000000 kcal/mol
 G_dispersion     =       0.00000000 hartree =       0.00000000 kcal/mol
 G_repulsion      =       0.00000000 hartree =       0.00000000 kcal/mol
 --------------------------------------------------
 Non-electrostatic Free Energy =       0.00000000 hartree =       0.00000000 kcal/mol
 Total                         =      -0.28783951 hartree =    -180.62201634 kcal/mol
 --------------------------------------------------
 SCF Energy (H0 + V/2)                       =   -3553.59757923 
 Solute Internal Energy (H0)                 =   -3553.30973972 
 Total Free Energy (H0 + V/2 + non-elec)     =   -3553.59757923 hartree
                                             = -2229916.13708703 kcal/mol
***********************************************************

 SCF   energy in the final basis set =    -3553.5975792261
 Total energy in the final basis set =    -3553.5975792261
 
 --------------------------------------------------------------
 
                    Orbital Energies (a.u.)
 --------------------------------------------------------------
 
 Alpha MOs
 -- Occupied --
******** -30.1210 -25.9753 -25.9718 -25.9711 -19.1122 -19.1065 -19.0986
-19.0974 -19.0966 -19.0955 -19.0943 -19.0926 -19.0909 -14.3415 -14.3411
-14.3389 -14.3344 -14.3061 -14.2952 -10.2772 -10.2763 -10.2758 -10.2733
-10.2462 -10.2144 -10.2128 -10.2106 -10.2104 -10.2100 -10.2093 -10.2088
-10.2049 -10.1979 -10.1967 -10.1950 -10.1947 -10.1837 -10.1794 -10.1778
-10.1778 -10.1763 -10.1748 -10.1723 -10.1696 -10.1694 -10.1690 -10.1676
-10.1671 -10.1648 -10.1629 -10.1620 -10.1501  -3.6032  -2.3818  -2.3755
 -2.3728  -1.0287  -1.0212  -1.0201  -1.0183  -1.0020  -0.9965  -0.9941
 -0.9577  -0.9573  -0.9118  -0.9110  -0.9096  -0.9086  -0.8955  -0.8875
 -0.8217  -0.8195  -0.7892  -0.7813  -0.7672  -0.7604  -0.7542  -0.7303
 -0.7233  -0.7193  -0.7064  -0.7011  -0.6982  -0.6878  -0.6669  -0.6595
 -0.6313  -0.6220  -0.6018  -0.5986  -0.5881  -0.5868  -0.5848  -0.5761
 -0.5740  -0.5709  -0.5656  -0.5589  -0.5540  -0.5514  -0.5364  -0.5112
 -0.5054  -0.4966  -0.4906  -0.4856  -0.4787  -0.4772  -0.4750  -0.4718
 -0.4709  -0.4696  -0.4638  -0.4599  -0.4569  -0.4553  -0.4507  -0.4473
 -0.4436  -0.4427  -0.4419  -0.4411  -0.4317  -0.4291  -0.4255  -0.4215
 -0.4191  -0.4139  -0.4117  -0.4106  -0.4103  -0.4081  -0.4044  -0.4040
 -0.4020  -0.3972  -0.3962  -0.3933  -0.3928  -0.3909  -0.3875  -0.3840
 -0.3810  -0.3755  -0.3743  -0.3700  -0.3695  -0.3667  -0.3645  -0.3637
 -0.3589  -0.3565  -0.3543  -0.3514  -0.3456  -0.3445  -0.3423  -0.3420
 -0.3378  -0.3334  -0.3316  -0.3302  -0.3283  -0.3256  -0.3204  -0.3180
 -0.3146  -0.3134  -0.3121  -0.3102  -0.2955  -0.2939  -0.2820  -0.2662
 -0.2616  -0.2548  -0.2537  -0.2506  -0.2494  -0.2471  -0.2443  -0.2415
 -0.2400  -0.2214  -0.2211  -0.2201  -0.2144  -0.2115  -0.2101  -0.1967
 -0.1683  -0.1672
 -- Virtual --
 -0.0150  -0.0119  -0.0049   0.0217   0.0260   0.0304   0.0420   0.0561
  0.0576   0.0633   0.0695   0.0702   0.0766   0.0793   0.0808   0.0825
  0.0852   0.0888   0.0908   0.0943   0.0976   0.1005   0.1047   0.1060
  0.1105   0.1114   0.1126   0.1181   0.1187   0.1268   0.1284   0.1322
  0.1331   0.1405   0.1443   0.1458   0.1482   0.1507   0.1528   0.1550
  0.1584   0.1602   0.1626   0.1646   0.1666   0.1680   0.1722   0.1727
  0.1749   0.1781   0.1820   0.1853   0.1868   0.1911   0.1952   0.1957
  0.2005   0.2052   0.2085   0.2121   0.2152   0.2210   0.2222   0.2256
  0.2275   0.2335   0.2352   0.2387   0.2413   0.2505   0.2536   0.2576
  0.2591   0.2606   0.2632   0.2707   0.2715   0.2735   0.2752   0.2817
  0.2853   0.2867   0.2884   0.2933   0.2980   0.2995   0.3082   0.3117
  0.3177   0.3191   0.3223   0.3234   0.3364   0.3383   0.3435   0.3605
  0.3635   0.3654   0.3714   0.3782   0.3883   0.4005   0.4023   0.4080
  0.4096   0.4112   0.4185   0.4226   0.4254   0.4264   0.4296   0.4310
  0.4363   0.4385   0.4427   0.4452   0.4497   0.4556   0.4557   0.4589
  0.4619   0.4664   0.4686   0.4718   0.4742   0.4759   0.4786   0.4798
  0.4829   0.4893   0.4917   0.4986   0.5012   0.5073   0.5105   0.5140
  0.5166   0.5243   0.5258   0.5272   0.5287   0.5303   0.5330   0.5379
  0.5399   0.5417   0.5452   0.5486   0.5503   0.5517   0.5546   0.5570
  0.5627   0.5659   0.5738   0.5740   0.5773   0.5793   0.5806   0.5864
  0.5905   0.5919   0.5946   0.5976   0.6008   0.6048   0.6102   0.6120
  0.6143   0.6159   0.6199   0.6227   0.6244   0.6271   0.6293   0.6311
  0.6340   0.6380   0.6393   0.6418   0.6457   0.6470   0.6485   0.6514
  0.6519   0.6552   0.6568   0.6589   0.6593   0.6611   0.6621   0.6643
  0.6696   0.6705   0.6714   0.6769   0.6777   0.6804   0.6816   0.6835
  0.6852   0.6863   0.6890   0.6927   0.6958   0.6974   0.6984   0.6997
  0.7015   0.7031   0.7059   0.7084   0.7122   0.7149   0.7164   0.7179
  0.7220   0.7237   0.7296   0.7338   0.7369   0.7382   0.7459   0.7468
  0.7494   0.7562   0.7568   0.7594   0.7609   0.7637   0.7710   0.7762
  0.7816   0.7857   0.7876   0.7918   0.8005   0.8038   0.8143   0.8191
  0.8201   0.8276   0.8355   0.8393   0.8424   0.8464   0.8531   0.8574
  0.8656   0.8669   0.8693   0.8729   0.8760   0.8820   0.8870   0.8890
  0.8917   0.9019   0.9037   0.9057   0.9126   0.9134   0.9190   0.9226
  0.9274   0.9318   0.9333   0.9383   0.9487   0.9526   0.9531   0.9549
  0.9593   0.9672   0.9719   0.9789   0.9844   0.9874   0.9906   0.9995
  1.0050   1.0122   1.0167   1.0186   1.0212   1.0324   1.0363   1.0406
  1.0450   1.0460   1.0489   1.0544   1.0562   1.0609   1.0631   1.0648
  1.0768   1.0788   1.0811   1.0817   1.0899   1.0967   1.1020   1.1023
  1.1107   1.1140   1.1165   1.1221   1.1253   1.1286   1.1348   1.1368
  1.1437   1.1482   1.1509   1.1538   1.1585   1.1649   1.1727   1.1745
  1.1811   1.1824   1.1875   1.1918   1.1933   1.1978   1.2048   1.2074
  1.2122   1.2146   1.2160   1.2252   1.2302   1.2306   1.2353   1.2423
  1.2464   1.2482   1.2517   1.2533   1.2561   1.2573   1.2645   1.2744
  1.2837   1.2927   1.2965   1.3022   1.3032   1.3097   1.3155   1.3189
  1.3215   1.3244   1.3292   1.3372   1.3479   1.3511   1.3585   1.3652
  1.3750   1.3833   1.3844   1.3853   1.3902   1.3906   1.4019   1.4091
  1.4107   1.4131   1.4179   1.4198   1.4315   1.4356   1.4406   1.4426
  1.4468   1.4490   1.4564   1.4601   1.4630   1.4704   1.4738   1.4800
  1.4830   1.4850   1.4955   1.4999   1.5019   1.5094   1.5141   1.5184
  1.5217   1.5239   1.5321   1.5346   1.5392   1.5453   1.5487   1.5508
  1.5568   1.5619   1.5680   1.5743   1.5782   1.5802   1.5838   1.5867
  1.5919   1.5948   1.5984   1.5992   1.6035   1.6067   1.6101   1.6129
  1.6184   1.6197   1.6225   1.6254   1.6274   1.6303   1.6350   1.6371
  1.6406   1.6442   1.6453   1.6458   1.6492   1.6527   1.6554   1.6620
  1.6628   1.6658   1.6698   1.6719   1.6724   1.6745   1.6759   1.6778
  1.6793   1.6830   1.6873   1.6928   1.6961   1.6975   1.6981   1.7019
  1.7044   1.7068   1.7084   1.7134   1.7156   1.7191   1.7212   1.7239
  1.7258   1.7265   1.7297   1.7322   1.7341   1.7375   1.7408   1.7427
  1.7453   1.7508   1.7539   1.7577   1.7600   1.7644   1.7663   1.7680
  1.7691   1.7762   1.7788   1.7792   1.7820   1.7845   1.7890   1.7918
  1.7942   1.7958   1.7964   1.8015   1.8049   1.8056   1.8094   1.8125
  1.8130   1.8148   1.8253   1.8274   1.8311   1.8323   1.8336   1.8391
  1.8422   1.8483   1.8486   1.8535   1.8549   1.8587   1.8619   1.8666
  1.8734   1.8756   1.8819   1.8902   1.8979   1.8995   1.9034   1.9118
  1.9139   1.9154   1.9190   1.9238   1.9283   1.9328   1.9364   1.9391
  1.9428   1.9481   1.9527   1.9563   1.9578   1.9618   1.9673   1.9702
  1.9727   1.9775   1.9860   1.9898   1.9922   1.9945   2.0026   2.0055
  2.0138   2.0197   2.0219   2.0256   2.0282   2.0346   2.0403   2.0516
  2.0529   2.0580   2.0593   2.0696   2.0748   2.0860   2.0914   2.0972
  2.1005   2.1054   2.1151   2.1185   2.1192   2.1277   2.1295   2.1309
  2.1372   2.1407   2.1442   2.1466   2.1541   2.1577   2.1605   2.1664
  2.1696   2.1766   2.1815   2.1875   2.1969   2.2036   2.2086   2.2106
  2.2160   2.2200   2.2239   2.2302   2.2360   2.2381   2.2426   2.2471
  2.2505   2.2598   2.2659   2.2693   2.2720   2.2757   2.2772   2.2842
  2.2866   2.2912   2.2968   2.2990   2.3054   2.3113   2.3170   2.3238
  2.3326   2.3380   2.3433   2.3501   2.3614   2.3668   2.3744   2.3801
  2.3820   2.3854   2.3940   2.4006   2.4128   2.4175   2.4255   2.4287
  2.4366   2.4381   2.4453   2.4514   2.4534   2.4570   2.4618   2.4681
  2.4736   2.4793   2.4845   2.4878   2.4897   2.4947   2.4990   2.5151
  2.5191   2.5204   2.5313   2.5366   2.5427   2.5433   2.5524   2.5593
  2.5657   2.5815   2.6028   2.6056   2.6077   2.6130   2.6158   2.6259
  2.6360   2.6363   2.6410   2.6542   2.6566   2.6625   2.6696   2.6899
  2.6920   2.6941   2.6976   2.7009   2.7092   2.7149   2.7177   2.7207
  2.7291   2.7322   2.7332   2.7369   2.7453   2.7469   2.7531   2.7612
  2.7686   2.7787   2.7834   2.7877   2.7930   2.7956   2.8009   2.8040
  2.8137   2.8188   2.8382   2.8466   2.8627   2.8686   2.8695   2.9145
  2.9285   2.9421   2.9437   2.9451   2.9493   2.9553   2.9640   3.0026
  3.0178   3.0286   3.0471   3.0617   3.0667   3.0725   3.0824   3.0932
  3.1017   3.1053   3.1085   3.1200   3.1314   3.1346   3.1559   3.1619
  3.1900   3.1951   3.2051   3.2727   3.2829   3.3380   3.3916   3.4204
  3.4391   3.4418   3.4515   3.4720   3.4763   3.4835   3.4887   3.4914
  3.5022   3.5149   3.5231   3.5272   3.5511   3.6141   3.7042   3.7124
 
 Beta MOs
 -- Occupied --
******** -30.0280 -25.8968 -25.8947 -25.8945 -19.1098 -19.1037 -19.0965
-19.0955 -19.0942 -19.0941 -19.0929 -19.0880 -19.0866 -14.3413 -14.3411
-14.3389 -14.3344 -14.3061 -14.2952 -10.2772 -10.2763 -10.2758 -10.2733
-10.2463 -10.2145 -10.2129 -10.2106 -10.2104 -10.2100 -10.2093 -10.2088
-10.2049 -10.1979 -10.1967 -10.1950 -10.1947 -10.1836 -10.1794 -10.1778
-10.1778 -10.1763 -10.1747 -10.1721 -10.1696 -10.1694 -10.1689 -10.1673
-10.1671 -10.1645 -10.1626 -10.1618 -10.1498  -3.3865  -2.1503  -2.1479
 -2.1472  -1.0252  -1.0209  -1.0200  -1.0182  -0.9965  -0.9893  -0.9866
 -0.9487  -0.9479  -0.9110  -0.9104  -0.9096  -0.9085  -0.8954  -0.8875
 -0.8206  -0.8184  -0.7890  -0.7811  -0.7667  -0.7602  -0.7538  -0.7298
 -0.7223  -0.7184  -0.7054  -0.6997  -0.6970  -0.6873  -0.6666  -0.6592
 -0.6312  -0.6219  -0.6010  -0.5978  -0.5870  -0.5860  -0.5837  -0.5753
 -0.5734  -0.5703  -0.5654  -0.5577  -0.5532  -0.5496  -0.5341  -0.5082
 -0.5036  -0.4914  -0.4853  -0.4849  -0.4772  -0.4764  -0.4735  -0.4708
 -0.4685  -0.4666  -0.4580  -0.4560  -0.4512  -0.4509  -0.4458  -0.4444
 -0.4426  -0.4405  -0.4371  -0.4305  -0.4261  -0.4251  -0.4232  -0.4195
 -0.4125  -0.4097  -0.4085  -0.4057  -0.4043  -0.3997  -0.3989  -0.3971
 -0.3949  -0.3939  -0.3912  -0.3874  -0.3856  -0.3818  -0.3806  -0.3749
 -0.3711  -0.3697  -0.3657  -0.3606  -0.3596  -0.3566  -0.3546  -0.3467
 -0.3456  -0.3447  -0.3441  -0.3416  -0.3367  -0.3332  -0.3319  -0.3286
 -0.3256  -0.3205  -0.3188  -0.3170  -0.3137  -0.3117  -0.3093  -0.2948
 -0.2936  -0.2861  -0.2753  -0.2667  -0.2589  -0.2560  -0.2537  -0.2498
 -0.2484  -0.2480  -0.2447  -0.2431  -0.2398  -0.2385  -0.2211  -0.2147
 -0.2111  -0.2100  -0.1993  -0.1695  -0.1688
 -- Virtual --
 -0.0667  -0.0642  -0.0623  -0.0204  -0.0146  -0.0091  -0.0079   0.0059
  0.0239   0.0290   0.0312   0.0429   0.0563   0.0584   0.0640   0.0700
  0.0707   0.0769   0.0799   0.0810   0.0827   0.0866   0.0900   0.0911
  0.0946   0.0983   0.1009   0.1052   0.1066   0.1107   0.1117   0.1128
  0.1186   0.1191   0.1270   0.1286   0.1324   0.1332   0.1407   0.1445
  0.1459   0.1483   0.1508   0.1530   0.1552   0.1585   0.1606   0.1628
  0.1648   0.1668   0.1681   0.1724   0.1730   0.1750   0.1783   0.1828
  0.1859   0.1882   0.1913   0.1958   0.1971   0.2008   0.2060   0.2108
  0.2134   0.2170   0.2222   0.2257   0.2277   0.2279   0.2337   0.2369
  0.2393   0.2415   0.2510   0.2544   0.2588   0.2600   0.2611   0.2640
  0.2713   0.2737   0.2757   0.2798   0.2824   0.2872   0.2879   0.2895
  0.2971   0.2984   0.3034   0.3116   0.3144   0.3212   0.3235   0.3256
  0.3289   0.3409   0.3422   0.3497   0.3620   0.3654   0.3683   0.3732
  0.3822   0.3924   0.4032   0.4046   0.4092   0.4147   0.4173   0.4195
  0.4240   0.4270   0.4274   0.4300   0.4324   0.4368   0.4394   0.4431
  0.4460   0.4504   0.4560   0.4568   0.4595   0.4635   0.4667   0.4694
  0.4729   0.4755   0.4768   0.4789   0.4805   0.4837   0.4902   0.4922
  0.4991   0.5021   0.5080   0.5113   0.5147   0.5171   0.5247   0.5262
  0.5276   0.5294   0.5310   0.5338   0.5385   0.5410   0.5428   0.5458
  0.5494   0.5509   0.5526   0.5554   0.5579   0.5634   0.5666   0.5751
  0.5753   0.5781   0.5802   0.5823   0.5866   0.5913   0.5928   0.5950
  0.5985   0.6013   0.6055   0.6111   0.6125   0.6148   0.6166   0.6206
  0.6235   0.6251   0.6277   0.6304   0.6316   0.6347   0.6383   0.6396
  0.6424   0.6461   0.6475   0.6494   0.6520   0.6523   0.6556   0.6575
  0.6595   0.6598   0.6615   0.6625   0.6649   0.6706   0.6711   0.6718
  0.6775   0.6786   0.6811   0.6826   0.6848   0.6865   0.6869   0.6894
  0.6931   0.6964   0.6981   0.6988   0.7012   0.7026   0.7042   0.7069
  0.7092   0.7131   0.7154   0.7167   0.7188   0.7227   0.7247   0.7310
  0.7357   0.7380   0.7403   0.7473   0.7489   0.7505   0.7572   0.7592
  0.7616   0.7632   0.7666   0.7727   0.7771   0.7846   0.7882   0.7910
  0.7976   0.8040   0.8071   0.8154   0.8203   0.8221   0.8323   0.8357
  0.8399   0.8431   0.8481   0.8582   0.8605   0.8671   0.8694   0.8737
  0.8745   0.8775   0.8867   0.8884   0.8924   0.8928   0.9036   0.9042
  0.9067   0.9134   0.9145   0.9217   0.9235   0.9289   0.9330   0.9354
  0.9410   0.9496   0.9537   0.9553   0.9567   0.9664   0.9689   0.9734
  0.9793   0.9863   0.9882   0.9924   1.0009   1.0077   1.0136   1.0179
  1.0196   1.0222   1.0333   1.0378   1.0422   1.0463   1.0486   1.0494
  1.0556   1.0570   1.0625   1.0642   1.0679   1.0782   1.0801   1.0824
  1.0832   1.0904   1.0989   1.1029   1.1043   1.1127   1.1153   1.1175
  1.1240   1.1267   1.1312   1.1362   1.1387   1.1449   1.1497   1.1528
  1.1553   1.1614   1.1662   1.1738   1.1757   1.1828   1.1841   1.1892
  1.1926   1.1945   1.1986   1.2065   1.2088   1.2141   1.2154   1.2172
  1.2289   1.2314   1.2328   1.2426   1.2447   1.2473   1.2526   1.2545
  1.2562   1.2603   1.2639   1.2770   1.2802   1.2858   1.2958   1.3025
  1.3054   1.3074   1.3115   1.3177   1.3223   1.3254   1.3266   1.3345
  1.3459   1.3521   1.3595   1.3683   1.3729   1.3785   1.3845   1.3860
  1.3879   1.3927   1.3944   1.4045   1.4125   1.4146   1.4158   1.4214
  1.4237   1.4328   1.4368   1.4427   1.4441   1.4503   1.4551   1.4594
  1.4636   1.4688   1.4719   1.4818   1.4824   1.4868   1.4887   1.4986
  1.5033   1.5108   1.5135   1.5159   1.5224   1.5237   1.5292   1.5369
  1.5386   1.5420   1.5466   1.5531   1.5547   1.5601   1.5643   1.5720
  1.5798   1.5806   1.5819   1.5875   1.5900   1.5939   1.5970   1.6000
  1.6020   1.6091   1.6095   1.6115   1.6180   1.6201   1.6227   1.6257
  1.6266   1.6311   1.6341   1.6366   1.6422   1.6425   1.6459   1.6468
  1.6481   1.6505   1.6536   1.6574   1.6626   1.6649   1.6677   1.6709
  1.6729   1.6746   1.6776   1.6784   1.6794   1.6830   1.6865   1.6925
  1.6954   1.6972   1.6986   1.7007   1.7036   1.7057   1.7084   1.7102
  1.7167   1.7175   1.7206   1.7219   1.7253   1.7264   1.7286   1.7321
  1.7327   1.7358   1.7390   1.7418   1.7444   1.7507   1.7546   1.7565
  1.7605   1.7640   1.7662   1.7687   1.7704   1.7733   1.7790   1.7797
  1.7815   1.7836   1.7859   1.7898   1.7934   1.7961   1.7973   1.7991
  1.8029   1.8071   1.8079   1.8130   1.8134   1.8145   1.8192   1.8266
  1.8297   1.8316   1.8339   1.8343   1.8404   1.8429   1.8489   1.8508
  1.8545   1.8561   1.8597   1.8656   1.8688   1.8754   1.8795   1.8840
  1.8919   1.8984   1.9016   1.9044   1.9130   1.9150   1.9173   1.9214
  1.9256   1.9295   1.9336   1.9379   1.9402   1.9438   1.9500   1.9551
  1.9582   1.9588   1.9633   1.9698   1.9721   1.9758   1.9802   1.9881
  1.9916   1.9946   1.9949   2.0043   2.0071   2.0163   2.0212   2.0232
  2.0270   2.0290   2.0356   2.0411   2.0526   2.0544   2.0598   2.0603
  2.0711   2.0772   2.0870   2.0931   2.0987   2.1013   2.1058   2.1170
  2.1191   2.1200   2.1280   2.1313   2.1322   2.1382   2.1415   2.1459
  2.1473   2.1560   2.1589   2.1673   2.1709   2.1777   2.1798   2.1821
  2.1881   2.2004   2.2067   2.2105   2.2119   2.2167   2.2212   2.2260
  2.2318   2.2367   2.2422   2.2459   2.2476   2.2516   2.2603   2.2666
  2.2710   2.2729   2.2761   2.2789   2.2846   2.2872   2.2924   2.2983
  2.2997   2.3072   2.3132   2.3199   2.3252   2.3340   2.3399   2.3448
  2.3517   2.3617   2.3701   2.3775   2.3812   2.3850   2.3887   2.3976
  2.4014   2.4159   2.4265   2.4270   2.4339   2.4377   2.4421   2.4492
  2.4532   2.4554   2.4595   2.4661   2.4697   2.4739   2.4807   2.4858
  2.4893   2.4902   2.4952   2.4994   2.5161   2.5196   2.5207   2.5319
  2.5372   2.5431   2.5437   2.5532   2.5600   2.5665   2.5818   2.6033
  2.6067   2.6102   2.6145   2.6176   2.6282   2.6364   2.6371   2.6432
  2.6548   2.6573   2.6635   2.6700   2.6919   2.6954   2.6982   2.7009
  2.7070   2.7140   2.7191   2.7251   2.7280   2.7331   2.7370   2.7419
  2.7448   2.7479   2.7529   2.7568   2.7629   2.7749   2.7826   2.7854
  2.7926   2.7936   2.8021   2.8075   2.8147   2.8154   2.8221   2.8407
  2.8485   2.8681   2.8694   2.8777   2.9234   2.9325   2.9439   2.9442
  2.9520   2.9537   2.9642   2.9949   3.0462   3.0538   3.0663   3.0779
  3.0885   3.0937   3.0968   3.1040   3.1195   3.1297   3.1338   3.1390
  3.1448   3.1532   3.1612   3.1717   3.1784   3.1972   3.2285   3.2588
  3.2783   3.2874   3.3520   3.4343   3.4405   3.4470   3.4502   3.4613
  3.4739   3.4792   3.4899   3.4953   3.5041   3.5178   3.5318   3.5612
  3.5822   3.6282   3.6379   3.7139   3.7216
 --------------------------------------------------------------
 
          Ground-State Mulliken Net Atomic Charges

     Atom                 Charge (a.u.)    Spin (a.u.)
  --------------------------------------------------------
      1 C                     0.135235       0.004769
      2 C                    -0.074350       0.018284
      3 C                    -0.035936       0.009612
      4 C                     0.011700       0.002261
      5 C                    -0.038227       0.015515
      6 C                     0.135339       0.001475
      7 H                    -0.050066      -0.000169
      8 O                    -0.462106       0.139629
      9 C                     0.128525      -0.000071
     10 O                    -0.355818       0.002759
     11 N                    -0.151802       0.000487
     12 H                     0.111188      -0.000053
     13 C                    -0.022555       0.000032
     14 H                     0.004945      -0.000001
     15 H                     0.012128       0.000025
     16 C                     0.071153       0.000041
     17 H                    -0.007069       0.000001
     18 H                     0.028751      -0.000004
     19 N                    -0.242867       0.000007
     20 H                     0.091892       0.000003
     21 C                     0.002160       0.000015
     22 H                     0.010751       0.000005
     23 H                     0.007579      -0.000001
     24 C                     0.064020       0.000005
     25 H                    -0.009316       0.000004
     26 H                     0.023465      -0.000007
     27 C                    -0.035304       0.000148
     28 H                     0.012456       0.000011
     29 H                     0.009130       0.000002
     30 C                     0.103881      -0.000147
     31 H                     0.033133       0.000089
     32 N                    -0.152590       0.006645
     33 H                     0.116362       0.001069
     34 C                     0.246686       0.003268
     35 O                    -0.372276       0.062442
     36 C                    -0.122328       0.020014
     37 H                    -0.029809      -0.000589
     38 C                     0.056037       0.006776
     39 H                     0.054877       0.000037
     40 H                     0.026488      -0.000024
     41 C                     0.093342       0.000144
     42 O                    -0.360967      -0.000018
     43 N                    -0.129433       0.000011
     44 C                     0.111256      -0.000003
     45 H                     0.134985      -0.000109
     46 C                    -0.039882       0.000035
     47 H                     0.018153      -0.000062
     48 H                     0.009420      -0.000003
     49 C                    -0.022251       0.000016
     50 H                     0.001132       0.000006
     51 H                     0.016322       0.000015
     52 C                     0.083361      -0.000005
     53 H                    -0.005840       0.000000
     54 H                     0.009221       0.000014
     55 H                     0.001756       0.000005
     56 H                    -0.003313       0.000001
     57 C                     0.175894      -0.000064
     58 C                     0.020521       0.000908
     59 O                    -0.368216       0.002392
     60 C                    -0.040492       0.009893
     61 C                    -0.024857       0.015526
     62 C                    -0.093549       0.015958
     63 C                     0.135422       0.000242
     64 C                     0.134817       0.005410
     65 H                    -0.055100      -0.000116
     66 O                    -0.443015       0.133493
     67 C                     0.120277      -0.001677
     68 O                    -0.393473       0.070680
     69 H                    -0.049293      -0.000272
     70 O                    -0.444734       0.137596
     71 H                    -0.046542      -0.000266
     72 O                    -0.457090       0.127896
     73 Fe                    0.524217       4.186370
     74 N                    -0.255127       0.000036
     75 H                     0.084196       0.000041
     76 N                    -0.134722       0.000695
     77 H                     0.112173      -0.000022
     78 C                     0.092136      -0.000043
     79 H                     0.020345      -0.000006
     80 H                     0.018861       0.000021
     81 C                     0.005855       0.000070
     82 H                     0.002215       0.000025
     83 H                     0.006739      -0.000002
     84 C                     0.046013       0.000008
     85 H                     0.011158       0.000006
     86 H                     0.013119      -0.000019
     87 H                    -0.060269       0.000294
     88 H                    -0.063686       0.000215
     89 H                     0.024484       0.000288
     90 C                     0.096766      -0.000027
     91 H                     0.015504       0.000043
     92 H                     0.016731      -0.000009
  --------------------------------------------------------
  Sum of atomic charges =    -2.000000
  Sum of spin   charges =     5.000000

 -----------------------------------------------------------------
                    Cartesian Multipole Moments
 -----------------------------------------------------------------
    Charge (ESU x 10^10)
                -9.6064
    Dipole Moment (Debye)
         X      -0.1499      Y      18.7615      Z      18.4643
       Tot      26.3239
    Quadrupole Moments (Debye-Ang)
        XX    -457.6480     XY      48.2813     YY    -351.4011
        XZ      14.9735     YZ      -5.1435     ZZ    -329.9987
    Octopole Moments (Debye-Ang^2)
       XXX     202.2052    XXY     524.2481    XYY      64.7632
       YYY     209.5425    XXZ     487.2060    XYZ    -115.0528
       YYZ     287.5807    XZZ     -56.8839    YZZ      54.7416
       ZZZ     644.0580
    Hexadecapole Moments (Debye-Ang^3)
      XXXX  -55394.8655   XXXY    2147.8649   XXYY   -9482.7154
      XYYY     133.6123   YYYY   -6363.8879   XXXZ    2544.3705
      XXYZ    -877.3258   XYYZ     468.4422   YYYZ    -511.6228
      XXZZ   -8742.4567   XYZZ     435.6438   YYZZ   -2205.8603
      XZZZ    1077.6588   YZZZ    -621.1178   ZZZZ   -6135.9590
 -----------------------------------------------------------------
 Calculating analytic gradient of the SCF energy
 Gradient of SCF Energy
            1           2           3           4           5           6
    1   0.0301740  -0.0231305  -0.0533670   0.0102305  -0.0177496   0.0232953
    2   0.0034179   0.0083554  -0.0175697   0.0035070   0.0154518  -0.0240934
    3  -0.0296836   0.0109049   0.0375442  -0.0048192  -0.0073217   0.0126032
            7           8           9          10          11          12
    1  -0.0002517   0.0376513   0.0901266  -0.0974248  -0.0340351   0.0433631
    2  -0.0407407  -0.0313434  -0.0325382   0.0566653   0.0031186  -0.0231273
    3   0.0383833   0.0411568   0.0044299  -0.0182706   0.0279898   0.0012658
           13          14          15          16          17          18
    1  -0.0032613   0.0225886  -0.0183641  -0.0035300  -0.0234660   0.0227430
    2   0.0053230  -0.0145333  -0.0147196  -0.0154772   0.0079309   0.0313199
    3  -0.0022515   0.0060167  -0.0004698  -0.0018847  -0.0078808   0.0057711
           19          20          21          22          23          24
    1   0.0157216  -0.0156671   0.0036393   0.0037061  -0.0118043  -0.0035832
    2   0.0022308  -0.0225427  -0.0014307   0.0141620  -0.0172188  -0.0166226
    3   0.0049134  -0.0053659   0.0079382  -0.0206261  -0.0065381   0.0062251
           25          26          27          28          29          30
    1  -0.0199840   0.0184607  -0.0069829   0.0107688  -0.0032711   0.0036966
    2   0.0071169   0.0273275   0.0069003  -0.0114912  -0.0186395  -0.0233070
    3  -0.0111577   0.0079593  -0.0044358  -0.0182303   0.0199225  -0.0069627
           31          32          33          34          35          36
    1  -0.0163055  -0.0241222   0.0070882   0.0244611  -0.0278956  -0.0225367
    2   0.0184650   0.0131602  -0.0430177  -0.0257969   0.0718336  -0.0010841
    3   0.0343835  -0.0186190  -0.0062232  -0.0045579   0.0149578   0.0005131
           37          38          39          40          41          42
    1   0.0097244  -0.0049569   0.0185275  -0.0026175  -0.0102286  -0.0069370
    2  -0.0381526   0.0007003   0.0190916  -0.0405038   0.0595408  -0.0912339
    3  -0.0223545   0.0207583  -0.0316061  -0.0105833  -0.0728248   0.0901292
           43          44          45          46          47          48
    1   0.0162718   0.0022415  -0.0025681   0.0051825  -0.0099364  -0.0015190
    2  -0.0082238  -0.0063731   0.0436320  -0.0159198   0.0385023  -0.0277262
    3   0.0338068  -0.0181571  -0.0447758  -0.0057431   0.0181882   0.0317614
           49          50          51          52          53          54
    1   0.0052147   0.0189296   0.0000864  -0.0151395   0.0046364  -0.0239241
    2   0.0137180   0.0082429   0.0236840   0.0065225  -0.0193882  -0.0123429
    3  -0.0020910   0.0257688  -0.0234756  -0.0010533   0.0229963  -0.0192406
           55          56          57          58          59          60
    1   0.0079611   0.0215724  -0.0696309  -0.0100048   0.0757341   0.0435929
    2  -0.0259465   0.0111739  -0.0113022   0.0045502   0.0210831  -0.0168100
    3  -0.0068387   0.0175981  -0.0104008   0.0021932   0.0396574  -0.0395727
           61          62          63          64          65          66
    1   0.0185782   0.0249914  -0.0216258  -0.0252732  -0.0001105  -0.0443998
    2   0.0094915   0.0133344  -0.0186414  -0.0065388  -0.0185359   0.0217005
    3   0.0091960  -0.0082619  -0.0217736   0.0272549  -0.0446527   0.0468895
           67          68          69          70          71          72
    1   0.0300807  -0.0003472  -0.0016973   0.0458274   0.0019034  -0.0347164
    2  -0.0222686   0.0489361   0.0397332   0.0342881   0.0195608  -0.0110830
    3  -0.0128270   0.0523910  -0.0431575  -0.0396666   0.0540116  -0.0462554
           73          74          75          76          77          78
    1   0.0003655   0.0217260  -0.0103081   0.0290614  -0.0379616  -0.0139874
    2  -0.0083052  -0.0269570   0.0380211   0.0068597  -0.0083698  -0.0082613
    3  -0.0069515  -0.0225902   0.0130864  -0.0121371  -0.0188672   0.0039777
           79          80          81          82          83          84
    1   0.0264300   0.0027155  -0.0020324   0.0218258  -0.0167735   0.0133290
    2   0.0106065   0.0077319   0.0053347  -0.0085275  -0.0083206   0.0093169
    3   0.0147005  -0.0249756   0.0030815  -0.0095678  -0.0146473   0.0056423
           85          86          87          88          89          90
    1   0.0000295  -0.0236042   0.0405992  -0.0425694   0.0040622   0.0138303
    2  -0.0276125   0.0069602   0.0125163   0.0244132   0.0279268  -0.0021906
    3  -0.0029647   0.0098666   0.0264527  -0.0201812  -0.0259967  -0.0117790
           91          92
    1  -0.0044219  -0.0287213
    2  -0.0151278   0.0164978
    3   0.0237998  -0.0048182
 Max gradient component =       9.742E-02
 RMS gradient           =       2.579E-02
 Computing fast CPCM-SWIG gradient
 Updating gradient with PCM contributions...
 -- total gradient after adding PCM contribution --
---------------------------------------------------
  Atom         X              Y              Z     
---------------------------------------------------
   1       0.000078       0.000771       0.000350
   2      -0.000127      -0.000747      -0.000833
   3       0.000551       0.000058      -0.000187
   4      -0.000136       0.000000      -0.000028
   5       0.000033       0.000053       0.000196
   6      -0.000468      -0.000923       0.000170
   7       0.000036       0.000179       0.000186
   8      -0.000040      -0.000216       0.000290
   9      -0.000331       0.000179       0.000707
  10       0.000083      -0.000024      -0.000180
  11      -0.000747      -0.000165       0.000435
  12       0.000275       0.000265      -0.000412
  13       0.000099       0.000791       0.000429
  14      -0.000074      -0.000117      -0.000006
  15       0.000030       0.000011       0.000034
  16       0.000631      -0.000921      -0.000048
  17      -0.000024       0.000275       0.000082
  18      -0.000101       0.000356      -0.000076
  19      -0.000314       0.000004       0.000383
  20      -0.000182       0.000057      -0.000232
  21       0.000507       0.000111      -0.000422
  22      -0.000033      -0.000043       0.000100
  23      -0.000054       0.000054      -0.000047
  24      -0.000150       0.000130       0.000319
  25       0.000104      -0.000176      -0.000093
  26      -0.000132       0.000029      -0.000010
  27      -0.000433       0.000058       0.000160
  28      -0.000033      -0.000381       0.000287
  29       0.000034       0.000023      -0.000012
  30       0.000112       0.000933      -0.000218
  31       0.000316      -0.000130      -0.000143
  32       0.000094      -0.000281       0.001842
  33       0.000294       0.000125      -0.001119
  34      -0.000784       0.000079      -0.000718
  35       0.000216       0.000019       0.000486
  36       0.000774       0.000335      -0.000249
  37       0.000079      -0.000050       0.000033
  38       0.000017       0.000233      -0.000059
  39      -0.000077      -0.000115       0.000139
  40      -0.000008      -0.000098      -0.000004
  41      -0.000202       0.000181      -0.000048
  42       0.000060      -0.000310       0.000085
  43       0.000335      -0.000008      -0.000176
  44      -0.000276       0.000383      -0.000047
  45      -0.000094       0.000067       0.000085
  46       0.000137       0.000320       0.000191
  47       0.000111      -0.000110       0.000063
  48      -0.000013      -0.000080      -0.000068
  49       0.000099      -0.000051       0.000145
  50      -0.000063      -0.000110       0.000013
  51      -0.000024      -0.000141      -0.000125
  52      -0.000033       0.000053      -0.000348
  53      -0.000011      -0.000052      -0.000091
  54      -0.000038      -0.000007      -0.000016
  55       0.000019      -0.000030       0.000096
  56       0.000034      -0.000003       0.000017
  57       0.000015      -0.000064       0.000039
  58      -0.000127       0.000062       0.000231
  59      -0.000106      -0.000034       0.000010
  60      -0.000160      -0.000329      -0.000076
  61       0.000327       0.000076      -0.000062
  62       0.000191       0.000108       0.000035
  63      -0.000107      -0.000204      -0.000453
  64       0.000167       0.000222       0.000470
  65      -0.000055       0.000049      -0.000036
  66       0.000102      -0.000089       0.000274
  67      -0.000479      -0.000815       0.000314
  68       0.000361      -0.000025       0.000616
  69       0.000130       0.000303       0.000231
  70       0.000047      -0.000067      -0.000565
  71      -0.000086       0.000001       0.000018
  72      -0.000120       0.000050      -0.000102
  73      -0.000292       0.000892      -0.001427
  74      -0.000236      -0.000178       0.000442
  75       0.000099       0.000103      -0.000166
  76       0.000195       0.000264      -0.000152
  77      -0.000010      -0.000062      -0.000008
  78      -0.000021       0.000182       0.000217
  79       0.000045       0.000041      -0.000177
  80      -0.000135      -0.000141      -0.000072
  81       0.000188      -0.000084       0.000064
  82      -0.000066      -0.000077      -0.000017
  83       0.000011       0.000056       0.000022
  84      -0.000100       0.000169      -0.000066
  85       0.000157      -0.000023      -0.000029
  86      -0.000053      -0.000178      -0.000030
  87       0.000008       0.000005      -0.000033
  88       0.000026      -0.000070      -0.000040
  89      -0.000361      -0.000383      -0.000196
  90       0.000181      -0.000998       0.000049
  91       0.000155       0.000098      -0.000110
  92      -0.000042       0.000296      -0.000522
---------------------------------------------------
 Number of fixed atoms: 0
 Gradient time:  CPU 25393.69 s  wall 1704.36 s

 *****************************************************
             Starting BFGS Algorithm
 *****************************************************
            LIBOPT3 RUN PARAMETERS

  Geometry Optimization Coordinates :
	Delocalized Natural Internal Coordinates

  Step Length Selection Method :
	Eigenvector Following Algorithm

  Convergence Criteria :
	Max Gradient Component    	3.00000000e-04
	Max Displacement Component	1.20000000e-03
	Absolute Energy Difference	1.00000000e-06

  Initial Hessian :
	Approximate Hessian - Simple Internal Coordinate Scaled

  Type of Verification :
	Verify with final updated Hessian
 *****************************************************

	OPTIMIZATION CYCLE:	1

 Scaling Magnitude of Eigenvalues
 	Minimum: -25.00000000	 Maximum: 25.00000000
 270 Hessian Eigenvalues to form next step
   0.10000000   0.10000000   0.10000000   0.10000000   0.10000000
   0.10000000   0.10000000   0.10000000   0.10000000   0.10000000
   0.10000000   0.10000000   0.10000000   0.10000000   0.10000007
   0.10000066   0.10000118   0.10000160   0.10000283   0.10000393
   0.10000450   0.10000529   0.10000726   0.10000837   0.10000901
   0.10000980   0.10001345   0.10001833   0.10002107   0.10002307
   0.10002512   0.10003329   0.10003798   0.10003840   0.10005156
   0.10006465   0.10018954   0.10022002   0.10025363   0.10033205
   0.10042887   0.10050042   0.10082722   0.10085329   0.10138052
   0.10187568   0.10306161   0.10460564   0.10558666   0.10724251
   0.10844044   0.11076267   0.11233462   0.11298064   0.11420078
   0.11440141   0.11530153   0.11755616   0.11833406   0.11989287
   0.12004907   0.12090565   0.12146308   0.12285758   0.12317476
   0.12364729   0.12400788   0.12421520   0.12504175   0.12561936
   0.12569419   0.12671512   0.12718747   0.12725562   0.12767180
   0.12808741   0.12854346   0.12937925   0.13004898   0.13032357
   0.13215636   0.13402965   0.13423460   0.13663862   0.13814001
   0.13903516   0.14327682   0.14945612   0.15045683   0.15162426
   0.15170713   0.15200612   0.15207752   0.15226440   0.15247739
   0.15341242   0.15493972   0.15535845   0.15633159   0.15662061
   0.15664400   0.15675697   0.15762110   0.15994799   0.16148997
   0.16233248   0.16239486   0.16757446   0.16938979   0.17342408
   0.17659707   0.17672746   0.17685861   0.17724355   0.17808770
   0.17814749   0.17941502   0.18002413   0.18018704   0.18034228
   0.18125933   0.18215634   0.18450688   0.18460598   0.18515477
   0.18875199   0.19141258   0.19342389   0.19610046   0.19647533
   0.19764470   0.19784259   0.19843664   0.19885293   0.19910009
   0.19955148   0.19973225   0.19978612   0.19980971   0.19985530
   0.19987347   0.19989639   0.19991108   0.19991318   0.19992229
   0.19993874   0.19995788   0.19996071   0.19996628   0.19996885
   0.19996907   0.19998026   0.19998086   0.19998181   0.19998529
   0.20000000   0.20000000   0.20000000   0.20000000   0.20000000
   0.20000000   0.20000000   0.20000000   0.20000000   0.20000000
   0.20439311   0.20579850   0.21037412   0.22369277   0.25318912
   0.27262203   0.30523527   0.39728011   0.40510682   0.40990835
   0.43073493   0.44320098   0.44875936   0.45404157   0.45703823
   0.46677275   0.46921444   0.47196367   0.47631468   0.48499630
   0.48656620   0.48860457   0.48947295   0.49328159   0.49746406
   0.49846184   0.49888127   0.49983858   0.49992811   0.49996759
   0.50000000   0.50000000   0.50000000   0.50000000   0.50000000
   0.50000000   0.50000000   0.50000000   0.50000000   0.50000000
   0.50000000   0.50000000   0.50000000   0.50000000   0.50000000
   0.50000000   0.50000000   0.50000000   0.50000000   0.50000000
   0.50000000   0.50000000   0.50000000   0.50000000   0.50000000
   0.50000000   0.50000000   0.50000000   0.50000000   0.50000000
   0.50000000   0.50000000   0.50000000   0.50000000   0.50000000
   0.50000000   0.50000000   0.50000000   0.50000000   0.50000000
   0.50000000   0.50000000   0.50000000   0.50000000   0.50000000
   0.50000000   0.50000000   0.50000000   0.50000000   0.50000000
   0.50000000   0.50000000   0.50000000   0.50000000   0.50000000
   0.50000000   0.50000000   0.50000000   0.50000000   0.50000000
   0.50000000   0.50000000   0.50000000   0.50000000   0.50000000
   0.50000000   0.50000000   0.50000000   0.50000000   0.50085851
   0.50624771   0.50987896   0.51093726   0.51578441   0.51910638


 Minimum Search taking a RFO step
[...]
  14      -0.000113      -0.000082       0.000064
  15       0.000011      -0.000091       0.000123
  16      -0.000047      -0.000185       0.000159
  17       0.000016       0.000002       0.000024
  18       0.000038       0.000084       0.000010
  19       0.000025      -0.000064       0.000068
  20      -0.000087       0.000057      -0.000003
  21      -0.000170      -0.000001       0.000172
  22       0.000068      -0.000015       0.000006
  23       0.000007       0.000016       0.000034
  24      -0.000069       0.000073      -0.000231
  25       0.000045      -0.000071       0.000010
  26      -0.000010      -0.000002       0.000039
  27       0.000130      -0.000064      -0.000348
  28      -0.000019      -0.000013       0.000108
  29      -0.000015       0.000023       0.000038
  30      -0.000182      -0.000024       0.000274
  31       0.000048       0.000013      -0.000096
  32       0.000412       0.000265      -0.000389
  33      -0.000039      -0.000044       0.000013
  34      -0.000604      -0.000110       0.000380
  35       0.000258       0.000036       0.000060
  36       0.000263       0.000039      -0.000047
  37      -0.000005      -0.000032       0.000029
  38      -0.000048       0.000190      -0.000038
  39      -0.000047      -0.000025       0.000036
  40      -0.000003      -0.000040       0.000009
  41       0.000067      -0.000131      -0.000011
  42      -0.000020       0.000194      -0.000050
  43       0.000008      -0.000037       0.000012
  44      -0.000022       0.000014      -0.000012
  45      -0.000006      -0.000014      -0.000010
  46       0.000121       0.000047      -0.000179
  47       0.000006      -0.000050       0.000076
  48      -0.000019      -0.000009      -0.000020
  49      -0.000082      -0.000041       0.000081
  50      -0.000105      -0.000021       0.000069
  51       0.000027      -0.000014       0.000008
  52      -0.000017       0.000140      -0.000034
  53       0.000107       0.000054       0.000010
  54      -0.000014      -0.000031       0.000038
  55      -0.000006      -0.000018      -0.000011
  56       0.000022      -0.000065       0.000006
  57      -0.000026      -0.000067       0.000037
  58       0.000083      -0.000102      -0.000114
  59      -0.000065       0.000055      -0.000035
  60       0.000077       0.000163       0.000070
  61      -0.000163      -0.000052       0.000032
  62      -0.000166      -0.000051       0.000022
  63       0.000064       0.000135       0.000192
  64       0.000016      -0.000206      -0.000239
  65       0.000001       0.000064      -0.000020
  66      -0.000132       0.000068      -0.000148
  67       0.000030      -0.000226       0.000005
  68      -0.000106       0.000142       0.000017
  69      -0.000029       0.000033       0.000014
  70      -0.000094      -0.000092      -0.000016
  71       0.000040       0.000028      -0.000010
  72       0.000027       0.000108       0.000110
  73       0.000234      -0.000222      -0.000134
  74      -0.000090      -0.000000       0.000073
  75       0.000030       0.000012      -0.000023
  76       0.000040       0.000059      -0.000061
  77       0.000019      -0.000053       0.000030
  78       0.000100      -0.000113       0.000100
  79       0.000008       0.000025      -0.000057
  80      -0.000074      -0.000013      -0.000030
  81       0.000008       0.000039      -0.000031
  82       0.000015       0.000042       0.000015
  83       0.000003       0.000017       0.000017
  84       0.000104      -0.000137      -0.000076
  85      -0.000058       0.000012       0.000021
  86      -0.000021       0.000035      -0.000007
  87      -0.000013       0.000010       0.000022
  88       0.000009       0.000017       0.000000
  89      -0.000029      -0.000004       0.000055
  90      -0.000252      -0.000020      -0.000255
  91       0.000079      -0.000057      -0.000006
  92      -0.000003       0.000056       0.000015
---------------------------------------------------
 Number of fixed atoms: 0
 Gradient time:  CPU 21675.10 s  wall 1458.40 s

     Step 30	:
        Energy is -3553.5987355279
                            Maximum         Tolerance       Converged?
         Gradient           2.14348043e-04	3.00000000e-04	true
         Displacement       1.13595075e-02	1.20000000e-03	false
         Energy change      9.69976099e-09	1.00000000e-06	true

	 Optimization Converged in 30 cycles

 *****************************************************
             End of BFGS Algorithm
 *****************************************************
		----------------------------------
		   Verification of Optimization
		----------------------------------

 Eigenvalues of Hessian in Optimization Verification
   0.00151811   0.00275837   0.00536589   0.01305266   0.02001531
   0.02946784   0.04564187   0.07367143   0.09954563   0.10000014
   0.10000041   0.10000063   0.10000076   0.10000131   0.10000167
   0.10000198   0.10000326   0.10000397   0.10000476   0.10000648
   0.10000857   0.10000891   0.10001083   0.10001319   0.10001617
   0.10002181   0.10002388   0.10002556   0.10003099   0.10003413
   0.10003952   0.10004914   0.10005577   0.10007886   0.10010205
   0.10011795   0.10015415   0.10019690   0.10022556   0.10035390
   0.10062445   0.10074062   0.10079251   0.10130668   0.10146456
   0.10240578   0.10315404   0.10442749   0.10487057   0.10545578
   0.10740302   0.10949563   0.11092323   0.11252945   0.11306148
   0.11326462   0.11397813   0.11477484   0.11614888   0.11813417
   0.11927665   0.12010480   0.12021442   0.12136925   0.12198143
   0.12311349   0.12342594   0.12386031   0.12462673   0.12525940
   0.12546968   0.12600839   0.12656075   0.12729290   0.12799383
   0.12803823   0.12904771   0.12945145   0.13002043   0.13024761
   0.13244632   0.13388765   0.13484537   0.13716234   0.13764605
   0.13920053   0.14245006   0.14872300   0.14990588   0.15076475
   0.15162038   0.15196992   0.15225010   0.15241734   0.15304561
   0.15322006   0.15451973   0.15539042   0.15620375   0.15646082
   0.15661897   0.15665710   0.15757739   0.15840564   0.16093480
   0.16144107   0.16240226   0.16731124   0.16940753   0.17092612
   0.17539846   0.17624737   0.17666873   0.17727312   0.17793321
   0.17906584   0.17953956   0.17966938   0.18017607   0.18038529
   0.18117422   0.18216963   0.18416724   0.18449302   0.18605982
   0.18849607   0.19135405   0.19359311   0.19490029   0.19565605
   0.19644092   0.19786947   0.19829072   0.19892817   0.19912222
   0.19940470   0.19944030   0.19955129   0.19975212   0.19976115
   0.19978563   0.19982664   0.19986770   0.19990112   0.19991212
   0.19992524   0.19994137   0.19995659   0.19996308   0.19997033
   0.19997923   0.19998907   0.19999544   0.19999979   0.20001310
   0.20006113   0.20024434   0.20138549   0.20207374   0.20334951
   0.20393780   0.20676534   0.20960705   0.21570290   0.22738745
   0.23871363   0.25158274   0.25856378   0.26887258   0.28489390
   0.29809140   0.37517584   0.39502374   0.39921791   0.40312253
   0.42337314   0.43133973   0.44783530   0.44982390   0.45176032
   0.45553832   0.46713631   0.46761529   0.47254518   0.47336728
   0.47683598   0.48049020   0.48655003   0.48808976   0.48960151
   0.49124109   0.49270211   0.49491942   0.49540472   0.49713291
   0.49868481   0.49921872   0.49931733   0.49985704   0.49994645
   0.49995108   0.49996983   0.49997997   0.49999885   0.50000000
   0.50000000   0.50000000   0.50000000   0.50000000   0.50000000
   0.50000000   0.50000000   0.50000000   0.50000000   0.50000000
   0.50000000   0.50000000   0.50000000   0.50000000   0.50000000
   0.50000000   0.50000000   0.50000000   0.50000000   0.50000000
   0.50000000   0.50000000   0.50000000   0.50000000   0.50000000
   0.50000000   0.50000000   0.50000000   0.50000000   0.50000000
   0.50000000   0.50000000   0.50000000   0.50000000   0.50000000
   0.50000000   0.50000000   0.50000011   0.50000018   0.50000025
   0.50000124   0.50000199   0.50000278   0.50000483   0.50000707
   0.50001373   0.50003275   0.50005987   0.50007295   0.50011705
   0.50012709   0.50037218   0.50100574   0.50214101   0.50299337
   0.50383412   0.50824976   0.50970806   0.51362490   0.51741918
   0.52195542   0.55246519   0.55804756   0.58718939   0.72759771


 Found a minimum
		---------------------------------
		       End of Verification
		---------------------------------

 Final energy is -3553.598735527853

	******************************
	**  OPTIMIZATION CONVERGED  **
	******************************
 Adding empirical dispersion correction 
 ----------------------------------------------------------------
 Doing -D3(BJ) with
 s6  =   1.00000
 s8  =   1.98890
 a1  =   0.39810
 a2  =   4.42110
 -D3 energy without 3body term =     -0.2220359485 hartrees
 ----------------------------------------------------------------
             Standard Nuclear Orientation (Angstroms)
    I     Atom           X                Y                Z
 ----------------------------------------------------------------
    1      C       2.9849263309    -1.4088744948    -2.0080461098
    2      C       4.2031120901    -1.1190023160    -2.6256704089
    3      C       5.3979761079    -1.7721769935    -2.2299254351
    4      C       5.3358523978    -2.7688273682    -1.2435267878
    5      C       4.1283878261    -3.0705049493    -0.6038098821
    6      C       2.9496606428    -2.3820707892    -0.9403402548
    7      H       4.1973956971    -0.3627216623    -3.4157646991
    8      O       1.8354742311    -0.8146533255    -2.3050773853
    9      C       6.7501163455    -1.3365168058    -2.6698190765
   10      O       7.7747264685    -1.9930876903    -2.4275872107
   11      N       6.8245728314    -0.1120782299    -3.2993000132
   12      H       5.9583530311     0.4175168050    -3.2975995010
   13      C       7.8177370270     1.7132626309    -1.9604700948
   14      H       6.9633750107     2.3757464373    -2.1894957606
   15      H       8.7104393270     2.3585235550    -1.8823779023
   16      C       7.5363857512     1.0267830991    -0.6228593178
   17      H       8.4517776146     0.5017456180    -0.2688822928
   18      H       6.7722543802     0.2479852684    -0.7681951787
   19      N       6.9889281993     1.9539621176     0.3645913921
   20      H       7.6807409335     2.6815967156     0.5624935640
   21      C       5.8807792450     2.2222284407     2.5640090330
   22      H       5.7616744376     1.7197200648     3.5402641319
   23      H       6.5001576326     3.1169994155     2.7531132366
   24      C       6.6436492047     1.2884632919     1.6215929345
   25      H       7.5357925552     0.8810713825     2.1459297138
   26      H       6.0158994744     0.4157926374     1.3695718919
   27      C       4.5097550566     2.6597235874     2.0365817180
   28      H       4.1301705368     3.4875364001     2.6612145801
   29      H       4.6205679313     3.0476430402     1.0111602660
   30      C       3.4725931615     1.5334808439     2.0391618855
   31      H       3.7568151987     0.7274575408     1.3500673916
   32      N       2.1727466195     2.0283464959     1.6150539476
   33      H       1.8708478499     2.9232004190     1.9850256110
   34      C       1.2916279047     1.3462242318     0.8373005838
   35      O       1.6298403921     0.1996472319     0.3977027328
   36      C       0.0244387162     1.9709362425     0.5730045988
   37      H      -0.2592767739     2.8332611979     1.1784883833
   38      C      -2.2589725260     2.1231389706    -0.4049516800
   39      H      -2.8206417003     1.5973149152     0.3854840390
   40      H      -2.2213411128     3.1874058316    -0.1348148106
   41      C      -2.9965621016     2.0007431088    -1.7275941887
   42      O      -2.8893946945     2.8594526101    -2.6121688190
   43      N      -3.7897610120     0.9091299674    -1.8410771962
   44      C      -4.6844248586     0.6698050090    -2.9636102281
   45      H      -3.7930809454     0.2291309268    -1.0851068282
   46      C      -6.1481660868     0.6224153321    -2.5124948778
   47      H      -4.4109598272    -0.2808820551    -3.4487952532
   48      H      -4.5137342749     1.4850033688    -3.6804574912
   49      C      -6.6481480864     1.9417822920    -1.9184015539
   50      H      -6.7747026282     0.3354888708    -3.3758279451
   51      H      -6.2562430635    -0.1864907759    -1.7724187784
   52      C      -7.9630710161     1.8076778621    -1.1299524798
   53      H      -6.7883439021     2.6859823173    -2.7228636415
   54      H      -5.8734391001     2.3548650095    -1.2514695900
   55      H      -8.2945301170     2.8179515225    -0.8269753975
   56      H      -8.7481599976     1.4053250488    -1.7946481112
   57      C      -5.8483295054    -1.7733099194     0.5525907756
   58      C      -4.4220506457    -2.4812248211    -1.3341349774
   59      O      -6.8819680516    -1.9138797875    -0.1364020887
   60      C      -4.4967858562    -1.9873325150    -0.0224982266
   61      C      -3.1946217039    -2.5853704915    -1.9943387289
   62      C      -3.2948716234    -1.6405661691     0.6510520114
   63      C      -2.0043667542    -2.1917364149    -1.3580196755
   64      C      -2.0536209686    -1.7612458899     0.0214922755
   65      H      -3.2961397971    -1.2386736364     1.6671386096
   66      O      -0.8249283609    -2.1689771671    -1.9440060433
   67      C      -0.8505228747     1.5272389890    -0.4069134422
   68      O      -0.6063952809     0.6214441334    -1.2885249996
   69      H       4.0903917790    -3.8156055422     0.1961070472
   70      O       1.7901630021    -2.5517661971    -0.3332789490
   71      H      -3.1455359190    -2.9287585429    -3.0313291807
   72      O      -0.8934362171    -1.4533167137     0.5885859212
   73      Fe      0.4902030125    -1.0954218394    -0.8419515970
   74      N      -7.9324630634     0.9648270677     0.0695833154
   75      H      -7.7696340307    -0.0081524690    -0.2031831464
   76      N      -5.9282769730    -1.3899742951     1.8579389484
   77      H      -5.0651029909    -1.2215309256     2.3603539003
   78      C      -7.1421821764    -0.8220690045     2.4256656112
   79      H      -7.9821553599    -1.2130414200     1.8376605260
   80      H      -7.2573864217    -1.1844374930     3.4589048488
   81      C      -7.1436833178     0.7151066004     2.4143978249
   82      H      -8.1167198801     1.0564604698     2.8084699329
   83      H      -6.3645034112     1.0804557263     3.1068123732
   84      C      -6.9031371496     1.3441765346     1.0394105411
   85      H      -6.9281406530     2.4420198601     1.1510757134
   86      H      -5.8756776701     1.0929261478     0.7020811194
   87      H      -5.3502188476    -2.7451899676    -1.8405996800
   88      H       6.2616385957    -3.2610074764    -0.9434031639
   89      H       3.4084083278     1.0921166428     3.0528597541
   90      C       8.0105664437     0.7242201871    -3.1217771087
   91      H       8.2189478927     1.2754753641    -4.0519889753
   92      H       8.8548057150     0.0479015565    -2.9320507199
 ----------------------------------------------------------------
 Nuclear Repulsion Energy =        7394.24074946 hartrees
 There are      194 alpha and      189 beta electrons

Z-matrix Print:
$molecule
-2 6
Fe
O  1 2.007317
C  2 1.327617 1 110.766666
C  3 1.396231 2 124.298442 1 -162.426215 0
H  4 1.093729 3 117.293230 2 -1.009752 0
C  4 1.418080 3 121.069183 2 178.338874 0
C  6 1.403622 4 119.070173 3 2.959055 0
H  7 1.090594 6 118.441836 4 -179.700468 0
C  7 1.399363 6 120.832353 4 -3.375548 0
H  9 1.093840 7 120.739268 6 -177.220513 0
C  9 1.405913 7 120.560162 6 0.192308 0
O  11 1.319756 9 124.300435 7 -175.943697 0
C  6 1.487141 4 123.272358 3 -168.524298 0
O  13 1.240801 6 122.550385 4 -172.564040 0
N  13 1.378782 6 116.378788 4 11.218388 0
H  15 1.015288 13 114.606980 6 7.017538 0
C  15 1.462016 13 119.759164 6 146.520305 0
H  17 1.098245 15 106.995959 13 28.539161 0
H  17 1.101181 15 109.711891 13 145.440325 0
C  17 1.537538 15 110.973298 13 -92.969208 0
H  20 1.104254 17 109.142110 15 -177.477779 0
H  20 1.105112 17 109.028967 15 -61.137324 0
C  20 1.529580 17 113.258451 15 59.057704 0
H  23 1.100702 20 109.255195 17 -46.409883 0
H  23 1.113062 20 109.787740 17 69.690714 0
N  23 1.460969 20 112.034337 17 -163.745918 0
H  26 1.023339 23 109.185828 20 -62.986565 0
C  26 1.463612 23 112.352964 20 176.638660 0
H  28 1.104146 26 107.305543 23 -50.978322 0
H  28 1.112123 26 112.472294 23 65.103241 0
C  28 1.530371 26 111.656438 23 -171.389088 0
H  31 1.104434 28 108.692019 26 -172.678778 0
H  31 1.104538 28 108.673745 26 -57.602834 0
C  31 1.532739 28 114.088510 26 64.526710 0
H  34 1.101930 31 109.314079 28 -50.897681 0
H  34 1.104321 31 109.074013 28 -167.911825 0
C  34 1.531057 31 113.290878 28 71.108780 0
H  37 1.097865 34 111.323022 31 -64.458292 0
H  37 1.107477 34 109.509412 31 53.996648 0
N  37 1.454084 34 110.776570 31 176.168782 0
H  40 1.014291 37 117.383137 34 -42.725028 0
C  40 1.358882 37 125.151121 34 142.109349 0
O  42 1.273685 40 118.505219 37 -2.497140 0
C  42 1.437319 40 117.305316 37 177.038130 0
H  44 1.091196 42 118.077859 40 -13.730267 0
C  44 1.386602 42 123.174572 40 166.518308 0
O  46 1.287362 44 126.118013 42 -7.963834 0
C  46 1.529324 44 117.100186 42 169.152702 0
H  48 1.098660 46 110.256409 44 37.443938 0
H  48 1.103065 46 106.506275 44 -79.058771 0
C  48 1.519343 46 114.493494 44 159.431655 0
O  51 1.237473 48 121.623555 46 -87.953449 0
N  51 1.354128 48 114.977677 46 93.487632 0
H  53 1.016809 51 118.601594 48 -4.010691 0
C  53 1.455260 51 123.871576 48 173.543005 0
H  55 1.098887 53 106.600504 51 4.175450 0
H  55 1.101814 53 109.207080 51 120.992000 0
C  55 1.532413 53 111.422339 51 -117.442737 0
H  58 1.101691 55 108.310511 53 -59.250799 0
H  58 1.104635 55 108.646479 53 -174.176979 0
C  58 1.530901 55 113.549815 53 63.090911 0
H  61 1.102547 58 109.156735 55 -42.759112 0
H  61 1.104829 58 109.839851 55 73.176180 0
C  61 1.539045 58 113.749884 55 -164.530239 0
H  64 1.104569 61 109.312212 58 -58.719002 0
H  64 1.105583 61 108.476428 58 -174.513295 0
N  64 1.466363 61 116.828910 58 63.338921 0
H  67 1.023525 64 109.373293 61 -66.228852 0
C  67 1.464235 64 114.052855 61 54.963553 0
H  69 1.103791 67 107.984699 64 44.897675 0
H  69 1.110221 67 112.997925 64 -72.097513 0
C  69 1.531072 67 112.205536 64 164.196665 0
H  72 1.103909 69 109.391446 67 -60.611268 0
H  72 1.104554 69 108.435422 67 -177.214607 0
C  72 1.537218 69 114.663424 67 60.740608 0
H  75 1.097344 72 110.585498 69 -64.870172 0
H  75 1.100984 72 109.627227 69 176.416918 0
N  75 1.455471 72 112.838269 69 54.783269 0
H  78 1.012849 75 116.897836 72 65.761096 0
C  78 1.362818 75 122.160608 72 -94.978774 0
O  80 1.250152 78 120.731196 75 -15.042988 0
C  80 1.484319 78 117.715285 75 163.684510 0
C  82 1.403533 80 117.470950 78 175.186614 0
H  83 1.089807 82 118.306162 80 -3.994603 0
C  83 1.397604 82 120.960003 80 173.626224 0
H  85 1.093469 83 120.717722 82 -177.267674 0
C  85 1.405901 83 120.588016 82 -0.225006 0
O  87 1.317184 85 124.163885 83 -174.925094 0
C  82 1.420744 80 123.465035 78 -8.923208 0
H  89 1.092681 82 121.981143 80 3.300252 0
C  89 1.397001 82 121.126409 80 -174.678210 0
O  91 1.327571 89 124.328966 82 179.842391 0
$end

 -----------------------------------------------------------------------
                  END OF GEOMETRY OPTIMIZER USING LIBOPT3               
 -----------------------------------------------------------------------
 Total job time:  115291.07s(wall), 1619592.81s(cpu) 
 Wed Jan 10 17:06:25 2024

        *************************************************************
        *                                                           *
        *  Thank you very much for using Q-Chem.  Have a nice day.  *
        *                                                           *
        *************************************************************


