
Running Job 1 of 1 C_FePBstar_enol_L_ctL_3sextet_b3lypD3bj_ccpVDZ_pcmH2O_opt.in
qchem C_FePBstar_enol_L_ctL_3sextet_b3lypD3bj_ccpVDZ_pcmH2O_opt.in_2582078.0 /data/scratch/C_FePBstar_enol_L_ctL_3sextet_b3lypD3bj_ccpVDZ_pcmH2O_opt20240124114530/ 0
/opt/qchem/6.0.1/exe/qcprog.exe_s C_FePBstar_enol_L_ctL_3sextet_b3lypD3bj_ccpVDZ_pcmH2O_opt.in_2582078.0 /data/scratch/C_FePBstar_enol_L_ctL_3sextet_b3lypD3bj_ccpVDZ_pcmH2O_opt20240124114530/
                  Welcome to Q-Chem
     A Quantum Leap Into The Future Of Chemistry


 Q-Chem 6.0, Q-Chem, Inc., Pleasanton, CA (2022)

 E. Epifanovsky,  A. T. B. Gilbert,  Xintian Feng,  Joonho Lee,  Yuezhi Mao,  
 N. Mardirossian,  P. Pokhilko,  A. White,  M. Wormit,  M. P. Coons,  
 A. L. Dempwolff,  Zhengting Gan,  D. Hait,  P. R. Horn,  L. D. Jacobson,  
 I. Kaliman,  J. Kussmann,  A. W. Lange,  Ka Un Lao,  D. S. Levine,  Jie Liu,  
 S. C. McKenzie,  A. F. Morrison,  K. Nanda,  F. Plasser,  D. R. Rehn,  
 M. L. Vidal,  Zhi-Qiang You,  Ying Zhu,  B. Alam,  B. Albrecht,  
 A. Aldossary,  E. Alguire,  J. H. Andersen,  V. Athavale,  D. Barton,  
 K. Begam,  A. Behn,  N. Bellonzi,  Y. A. Bernard,  E. J. Berquist,  
 H. Burton,  A. Carreras,  K. Carter-Fenk,  Romit Chakraborty,  
 Chandrima Chakravarty,  Junhan Chen,  A. D. Chien,  K. D. Closser,  
 V. Cofer-Shabica,  L. Cunha,  S. Dasgupta,  Jia Deng,  M. de Wergifosse,  
 M. Diedenhofen,  Hainam Do,  S. Ehlert,  Po-Tung Fang,  S. Fatehi,  
 Qingguo Feng,  T. Friedhoff,  B. Ganoe,  J. Gayvert,  Qinghui Ge,  
 G. Gidofalvi,  M. Goldey,  J. Gomes,  C. Gonzalez-Espinoza,  S. Gulania,  
 A. Gunina,  J. A. Gyamfi,  M. W. D. Hanson-Heine,  P. H. P. Harbach,  
 A. W. Hauser,  M. F. Herbst,  M. Hernandez Vera,  M. Hodecker,  
 Z. C. Holden,  S. Houck,  Xunkun Huang,  Kerwin Hui,  B. C. Huynh,  
 K. Ikeda,  M. Ivanov,  Hyunjun Ji,  Zuxin Jin,  Hanjie Jiang,  B. Kaduk,  
 S. Kaehler,  R. Kang,  K. Khistyaev,  Jaehoon Kim,  Yongbin Kim,  
 P. Klunzinger,  Z. Koczor-Benda,  Joong Hoon Koh,  D. Kosenkov,  
 Saikiran Kotaru,  L. Koulias,  T. Kowalczyk,  C. M. Krauter,  K. Kue,  
 A. Kunitsa,  T. Kus,  A. Landau,  K. V. Lawler,  D. Lefrancois,  S. Lehtola,  
 Rain Li,  Shaozhi Li,  Yi-Pei Li,  Jiashu Liang,  M. Liebenthal,  
 Hung-Hsuan Lin,  You-Sheng Lin,  Fenglai Liu,  Kuan-Yu Liu,  
 M. Loipersberger,  A. Luenser,  C. Malbon,  A. Manjanath,  P. Manohar,  
 E. Mansoor,  S. F. Manzer,  Shan-Ping Mao,  A. V. Marenich,  T. Markovich,  
 S. Mason,  F. Matz,  S. A. Maurer,  P. F. McLaughlin,  M. F. S. J. Menger,  
 J.-M. Mewes,  S. A. Mewes,  P. Morgante,  Mohammad Mostafanejad,  
 J. W. Mullinax,  K. J. Oosterbaan,  G. Paran,  V. Parravicini,  
 Alexander C. Paul,  Suranjan K. Paul,  F. Pavosevic,  Zheng Pei,  S. Prager,  
 E. I. Proynov,  E. Ramos,  B. Rana,  A. E. Rask,  A. Rettig,  R. M. Richard,  
 F. Rob,  E. Rossomme,  T. Scheele,  M. Scheurer,  M. Schneider,  
 P. E. Schneider,  N. Sergueev,  S. M. Sharada,  Hengyuan Shen,  
 W. Skomorowski,  D. W. Small,  C. J. Stein,  Yingli Su,  Yu-Chuan Su,  
 E. J. Sundstrom,  Zhen Tao,  J. Thirman,  Hung-Yi Tsai,  T. Tsuchimochi,  
 N. M. Tubman,  C. Utku,  S. P. Veccham,  O. Vydrov,  J. Wenzel,  
 Jonathan Wong,  J. Witte,  A. Yamada,  Chou-Hsun Yang,  Kun Yao,  
 S. Yeganeh,  S. R. Yost,  A. Zech,  F. Zeller,  Igor Ying Zhang,  
 Xing Zhang,  Yu Zhang,  D. Zuev,  A. Aspuru-Guzik,  A. T. Bell,  
 N. A. Besley,  K. B. Bravaya,  B. R. Brooks,  D. Casanova,  Jeng-Da Chai,  
 Hsing-Ta Chen,  S. Coriani,  C. J. Cramer,  A. E. DePrince, III,  
 R. A. DiStasio Jr.,  A. Dreuw,  B. D. Dunietz,  T. R. Furlani,  
 W. A. Goddard III,  S. Grimme,  S. Hammes-Schiffer,  T. Head-Gordon,  
 W. J. Hehre,  Chao-Ping Hsu,  T.-C. Jagau,  Yousung Jung,  A. Klamt,  
 Jing Kong,  D. S. Lambrecht,  Xiangyuan Li,  WanZhen Liang,  N. J. Mayhall,  
 C. W. McCurdy,  J. B. Neaton,  T. Neudecker,  C. Ochsenfeld,  
 J. A. Parkhill,  R. Peverati,  V. A. Rassolov,  Haisheng Ren,  Yihan Shao,  
 L. V. Slipchenko,  R. P. Steele,  J. E. Subotnik,  A. J. W. Thom,  
 A. Tkatchenko,  D. G. Truhlar,  T. Van Voorhis,  Fan Wang,  
 T. A. Wesolowski,  K. B. Whaley,  H. L. Woodcock III,  P. M. Zimmerman,  
 S. Faraji,  P. M. W. Gill,  M. Head-Gordon,  J. M. Herbert,  A. I. Krylov

 Contributors to earlier versions of Q-Chem not listed above: 
 R. D. Adamson,  B. Austin,  R. Baer,  J. Baker,  G. J. O. Beran,  
 K. Brandhorst,  S. T. Brown,  E. F. C. Byrd,  Arup K. Chakraborty,  
 G. K. L. Chan,  Chun-Min Chang,  Yunqing Chen,  C.-L. Cheng,  
 Siu Hung Chien,  D. M. Chipman,  D. L. Crittenden,  H. Dachsel,  
 R. J. Doerksen,  A. D. Dutoi,  R. G. Edgar,  J. Fosso-Tande,  
 L. Fusti-Molnar,  D. Ghosh,  A. Ghysels,  A. Golubeva-Zadorozhnaya,  
 J. Gonthier,  M. S. Gordon,  S. R. Gwaltney,  G. Hawkins,  J. E. Herr,  
 A. Heyden,  S. Hirata,  E. G. Hohenstein,  G. Kedziora,  F. J. Keil,  
 C. Kelley,  Jihan Kim,  R. A. King,  R. Z. Khaliullin,  P. P. Korambath,  
 W. Kurlancheek,  A. Laurent,  A. M. Lee,  M. S. Lee,  S. V. Levchenko,  
 Ching Yeh Lin,  D. Liotard,  E. Livshits,  R. C. Lochan,  I. Lotan,  
 L. A. Martinez-Martinez,  P. E. Maslen,  N. Nair,  D. P. O'Neill,  
 D. Neuhauser,  E. Neuscamman,  C. M. Oana,  R. Olivares-Amaya,  R. Olson,  
 T. M. Perrine,  B. Peters,  P. A. Pieniazek,  A. Prociuk,  Y. M. Rhee,  
 J. Ritchie,  M. A. Rohrdanz,  E. Rosta,  N. J. Russ,  H. F. Schaefer III,  
 M. W. Schmidt,  N. E. Schultz,  S. Sharma,  N. Shenvi,  C. D. Sherrill,  
 A. C. Simmonett,  A. Sodt,  T. Stein,  D. Stuck,  K. S. Thanthiriwatte,  
 V. Vanovschi,  L. Vogt,  Tao Wang,  A. Warshel,  M. A. Watson,  
 C. F. Williams,  Q. Wu,  X. Xu,  Jun Yang,  W. Zhang,  Yan Zhao

   Please cite Q-Chem as follows:
  "Software for the frontiers of quantum chemistry:
   An overview of developments in the Q-Chem 5 package"
   J. Chem. Phys. 155, 084801 (2021)
   https://doi.org/10.1063/5.0055522 (open access)

 Q-Chem 6.0.2 for Intel X86 EM64T Linux

 Parts of Q-Chem use Armadillo 9.900.5 (Nocturnal Misbehaviour).
 http://arma.sourceforge.net/

 Q-Chem begins on Wed Jan 24 11:45:32 2024  

 Host: 
0

     Scratch files written to /data/scratch/C_FePBstar_enol_L_ctL_3sextet_b3lypD3bj_ccpVDZ_pcmH2O_opt20240124114530//
 Dec722 |scratch|qcdevops|jenkins|workspace|build_RNUM 8907   
 Processing $rem in /opt/qchem/6.0.1/config/preferences:
 Processing $rem in /home/sgardner/.qchemrc:
 Symmetry turned off for PCM/SM12/SMD calculation

 Checking the input file for inconsistencies... 	...done.

--------------------------------------------------------------
User input:
--------------------------------------------------------------
$molecule
-2 6
C    3.0978882   -1.5176615   -1.5753844
C    4.4412249   -1.8594400   -1.3094894
C    5.4286716   -1.6624184   -2.3174246
C    5.0058290   -1.2412930   -3.5948686
C    3.6565450   -0.9567201   -3.8570222
C    2.7185211   -1.0449520   -2.8263791
H    4.7081474   -2.1487590   -0.3013573
O    1.4339626   -0.6311766   -2.9476190
C    6.9030515   -1.6765792   -2.0043842
O    7.6510400   -1.0114972   -2.7097996
N    7.3687334   -2.2002146   -0.8375122
H    6.7679596   -2.8263171   -0.2864983
C    8.5732095   -1.7201608   -0.1690043
H    9.2377350   -2.5714538    0.0907520
H    9.1653081   -0.9958011   -0.7784592
C    8.0677195   -1.0073116    1.1031077
H    8.8874102   -0.7526905    1.8084542
H    7.3837385   -1.7122505    1.6252885
C    7.3182740    0.2891858    0.7171005
H    6.7173789    0.1695629   -0.2048400
H    8.0772338    1.0609382    0.4688014
N    6.4417245    0.7889323    1.7830689
H    6.8547191    0.6555707    2.7352329
C    4.1052243    1.1551627    2.5027900
H    3.0619710    0.7777934    2.4242106
H    4.4144410    1.0954217    3.5683099
C    5.0642945    0.2618746    1.6969698
H    5.0263152   -0.7845337    2.0707256
H    4.7075960    0.2493404    0.6462795
C    4.1785440    2.6337664    2.0661726
H    3.6224896    3.2697561    2.7889124
H    5.2406187    2.9521519    2.1180892
C    3.6526463    2.9211669    0.6478845
H    4.0631859    2.2198334   -0.1041978
H    4.0005521    3.9372298    0.3641644
N    2.2086076    2.9734442    0.6218123
H    1.7629349    3.7004433    1.2052070
C    1.3853016    2.1874447   -0.2373139
O    1.8831045    1.1018542   -0.8860330
C    0.1010792    2.5685700   -0.4009507
H   -0.2332299    3.4702723    0.1079363
C   -2.1181281    2.7576136   -1.6320509
H   -2.6578840    2.9719159   -0.6833295
H   -1.7736020    3.7305965   -2.0481075
C   -3.1104200    2.1577514   -2.5989939
O   -3.3490160    2.7574991   -3.6384608
N   -3.7672741    1.0027314   -2.3028168
C   -4.7802868    0.4194820   -3.1720439
H   -3.5478439    0.5198351   -1.4196724
C   -6.1046118    0.2284424   -2.4213358
H   -4.4253368   -0.5773066   -3.5090514
H   -4.9617922    1.0386374   -4.0775470
C   -6.6895883    1.5460629   -1.8901283
H   -6.8390632   -0.2559773   -3.1016323
H   -5.9080160   -0.4512760   -1.5761035
C   -8.0295366    1.3548595   -1.1471587
H   -6.8705347    2.2329162   -2.7460597
H   -5.9611263    2.0343635   -1.2104104
H   -8.3876226    2.3441975   -0.7886085
H   -8.7894204    0.9756054   -1.8649296
C   -5.1519544   -2.0299114    0.8858989
C   -3.7044400   -1.6498901    0.7583991
O   -5.7795183   -2.3869957   -0.1000809
C   -3.1913553   -0.7587674    1.7335640
C   -2.8554423   -2.0265065   -0.3331840
C   -1.9176331   -0.2642088    1.6648011
C   -1.5322840   -1.5032494   -0.3883700
C   -1.1141662   -0.6251922    0.6192336
H   -1.5673430    0.4358676    2.4114401
O   -0.5996400   -1.7484318   -1.3645051
C   -0.8816884    1.9316690   -1.3093388
O   -0.7005259    0.8075711   -1.7731536
H    3.3673914   -0.5945513   -4.8325804
O    2.1265537   -1.5159796   -0.6367516
H   -3.2220388   -2.6768409   -1.1194616
O    0.0981580   -0.1004051    0.5176822
Fe    0.7197491   -0.3641068   -1.2057239
N   -7.9758448    0.4181008   -0.0128098
H   -7.8074633   -0.5528860   -0.3565006
N   -5.7924701   -1.8144891    2.0775968
H   -5.2594633   -1.6055298    2.9272269
C   -7.1989004   -1.5282662    2.2177019
H   -7.8139105   -1.9329714    1.3913836
H   -7.5554792   -1.9902370    3.1648484
C   -7.3355188    0.0133726    2.3373301
H   -8.3652227    0.2833702    2.6451400
H   -6.6422375    0.3744229    3.1341236
C   -7.0076225    0.7745589    1.0337982
H   -7.0697550    1.8643629    1.2493429
H   -5.9684883    0.5623420    0.6973229
H   -3.7600528   -0.3609912    2.5531253
H    5.7339649   -1.0789220   -4.3793891
$end

$rem
BASIS  =  gen
DFT_D  =  D3_BJ
GUI  =  2
JOB_TYPE  =  Optimization
METHOD  =  B3LYP
SCF_CONVERGENCE  =  8
SOLVENT_METHOD  =  PCM
GEOM_OPT_MAX_CYCLES = 200
$end

$pcm
THEORY  CPCM
$end

$solvent
DIELECTRIC  78.39
$end

$van_der_waals
26   2.44
$end

!----------------------------------------------------------------------
! Basis Set Exchange
! Basis set: cc-pVDZ
!----------------------------------------------------------------------

$rem
BASIS GEN
PURECART 11
$end

$basis
H     0
S   4   1.00
1.301000D+01           1.968500D-02
1.962000D+00           1.379770D-01
4.446000D-01           4.781480D-01
1.220000D-01           5.012400D-01
S   1   1.00
1.220000D-01           1.000000D+00
P   1   1.00
7.270000D-01           1.0000000
****
C     0
S   9   1.00
6.665000D+03           6.920000D-04
1.000000D+03           5.329000D-03
2.280000D+02           2.707700D-02
6.471000D+01           1.017180D-01
2.106000D+01           2.747400D-01
7.495000D+00           4.485640D-01
2.797000D+00           2.850740D-01
5.215000D-01           1.520400D-02
1.596000D-01          -3.191000D-03
S   9   1.00
6.665000D+03          -1.460000D-04
1.000000D+03          -1.154000D-03
2.280000D+02          -5.725000D-03
6.471000D+01          -2.331200D-02
2.106000D+01          -6.395500D-02
7.495000D+00          -1.499810D-01
2.797000D+00          -1.272620D-01
5.215000D-01           5.445290D-01
1.596000D-01           5.804960D-01
S   1   1.00
1.596000D-01           1.000000D+00
P   4   1.00
9.439000D+00           3.810900D-02
2.002000D+00           2.094800D-01
5.456000D-01           5.085570D-01
1.517000D-01           4.688420D-01
P   1   1.00
1.517000D-01           1.000000D+00
D   1   1.00
5.500000D-01           1.0000000
****
N     0
S   9   1.00
9.046000D+03           7.000000D-04
1.357000D+03           5.389000D-03
3.093000D+02           2.740600D-02
8.773000D+01           1.032070D-01
2.856000D+01           2.787230D-01
1.021000D+01           4.485400D-01
3.838000D+00           2.782380D-01
7.466000D-01           1.544000D-02
2.248000D-01          -2.864000D-03
S   9   1.00
9.046000D+03          -1.530000D-04
1.357000D+03          -1.208000D-03
3.093000D+02          -5.992000D-03
8.773000D+01          -2.454400D-02
2.856000D+01          -6.745900D-02
1.021000D+01          -1.580780D-01
3.838000D+00          -1.218310D-01
7.466000D-01           5.490030D-01
2.248000D-01           5.788150D-01
S   1   1.00
2.248000D-01           1.000000D+00
P   4   1.00
1.355000D+01           3.991900D-02
2.917000D+00           2.171690D-01
7.973000D-01           5.103190D-01
2.185000D-01           4.622140D-01
P   1   1.00
2.185000D-01           1.000000D+00
D   1   1.00
8.170000D-01           1.0000000
****
O     0
S   9   1.00
1.172000D+04           7.100000D-04
1.759000D+03           5.470000D-03
4.008000D+02           2.783700D-02
1.137000D+02           1.048000D-01
3.703000D+01           2.830620D-01
1.327000D+01           4.487190D-01
5.025000D+00           2.709520D-01
1.013000D+00           1.545800D-02
3.023000D-01          -2.585000D-03
S   9   1.00
1.172000D+04          -1.600000D-04
1.759000D+03          -1.263000D-03
4.008000D+02          -6.267000D-03
1.137000D+02          -2.571600D-02
3.703000D+01          -7.092400D-02
1.327000D+01          -1.654110D-01
5.025000D+00          -1.169550D-01
1.013000D+00           5.573680D-01
3.023000D-01           5.727590D-01
S   1   1.00
3.023000D-01           1.000000D+00
P   4   1.00
1.770000D+01           4.301800D-02
3.854000D+00           2.289130D-01
1.046000D+00           5.087280D-01
2.753000D-01           4.605310D-01
P   1   1.00
2.753000D-01           1.000000D+00
D   1   1.00
1.185000D+00           1.0000000
****
Fe     0
S   20   1.00
4.316265D+06           8.048803D-06
6.463424D+05           6.258306D-05
1.470897D+05           3.290239D-04
4.166152D+04           1.387355D-03
1.359077D+04           5.023256D-03
4.905750D+03           1.610140D-02
1.912746D+03           4.590034D-02
7.926043D+02           1.136154D-01
3.448065D+02           2.283869D-01
1.558999D+02           3.221159D-01
7.223091D+01           2.383661D-01
3.272506D+01           7.404667D-02
1.566762D+01           9.214197D-02
7.503483D+00           9.339790D-02
3.312223D+00           1.573965D-02
1.558471D+00          -4.186682D-04
6.839140D-01           5.376318D-05
1.467570D-01          -3.816654D-05
7.058300D-02           4.319603D-05
3.144900D-02          -3.401019D-06
S   20   1.00
4.316265D+06          -4.155954D-06
6.463424D+05          -3.231401D-05
1.470897D+05          -1.699525D-04
4.166152D+04          -7.171369D-04
1.359077D+04          -2.603625D-03
4.905750D+03          -8.399109D-03
1.912746D+03          -2.434109D-02
7.926043D+02          -6.251948D-02
3.448065D+02          -1.365929D-01
1.558999D+02          -2.312707D-01
7.223091D+01          -2.383734D-01
3.272506D+01           3.123837D-02
1.566762D+01           5.086818D-01
7.503483D+00           4.987695D-01
3.312223D+00           9.033552D-02
1.558471D+00          -6.005337D-03
6.839140D-01           2.312454D-04
1.467570D-01          -5.643680D-04
7.058300D-02           4.992260D-04
3.144900D-02          -1.015293D-04
S   20   1.00
4.316265D+06           9.532178D-07
6.463424D+05           7.414605D-06
1.470897D+05           3.898393D-05
4.166152D+04           1.647152D-04
1.359077D+04           5.985980D-04
4.905750D+03           1.942390D-03
1.912746D+03           5.687237D-03
7.926043D+02           1.501329D-02
3.448065D+02           3.452455D-02
1.558999D+02           6.495820D-02
7.223091D+01           7.716194D-02
3.272506D+01          -1.873411D-02
1.566762D+01          -3.009185D-01
7.503483D+00          -4.554661D-01
3.312223D+00           1.286463D-01
1.558471D+00           7.183316D-01
6.839140D-01           4.051743D-01
1.467570D-01           2.168227D-02
7.058300D-02          -8.343566D-03
3.144900D-02           3.658979D-03
S   20   1.00
4.316265D+06          -2.063008D-07
6.463424D+05          -1.604169D-06
1.470897D+05          -8.438437D-06
4.166152D+04          -3.563151D-05
1.359077D+04          -1.295998D-04
4.905750D+03          -4.201534D-04
1.912746D+03          -1.231954D-03
7.926043D+02          -3.248922D-03
3.448065D+02          -7.493717D-03
1.558999D+02          -1.410102D-02
7.223091D+01          -1.691600D-02
3.272506D+01           4.218996D-03
1.566762D+01           6.833810D-02
7.503483D+00           1.098201D-01
3.312223D+00          -4.009005D-02
1.558471D+00          -2.174739D-01
6.839140D-01          -2.465135D-01
1.467570D-01           2.731435D-01
7.058300D-02           5.748321D-01
3.144900D-02           3.012713D-01
S   20   1.00
4.316265D+06          -4.009367D-07
6.463424D+05          -3.189255D-06
1.470897D+05          -1.623079D-05
4.166152D+04          -7.157920D-05
1.359077D+04          -2.463958D-04
4.905750D+03          -8.544907D-04
1.912746D+03          -2.307593D-03
7.926043D+02          -6.728292D-03
3.448065D+02          -1.366165D-02
1.558999D+02          -3.062240D-02
7.223091D+01          -2.631137D-02
3.272506D+01          -9.760183D-03
1.566762D+01           1.801906D-01
7.503483D+00           1.529634D-01
3.312223D+00           5.505413D-02
1.558471D+00          -9.551364D-01
6.839140D-01           2.586813D-01
1.467570D-01           1.834049D+00
7.058300D-02          -9.333240D-01
3.144900D-02          -6.981605D-01
S   1   1.00
3.144900D-02           1.000000D+00
P   16   1.00
1.774569D+04           4.100000D-05
4.200721D+03           3.690000D-04
1.364429D+03           2.129000D-03
5.220806D+02           9.369000D-03
2.214595D+02           3.309700D-02
1.009096D+02           9.443100D-02
4.840115D+01           2.080770D-01
2.398536D+01           3.323330D-01
1.218250D+01           3.329870D-01
6.242298D+00           1.568430D-01
3.110944D+00           2.154900D-02
1.509958D+00          -2.095000D-03
7.108450D-01          -1.739000D-03
2.731900D-01          -3.000000D-04
1.042330D-01           2.900000D-05
3.829100D-02          -1.100000D-05
P   16   1.00
1.774569D+04          -1.500000D-05
4.200721D+03          -1.300000D-04
1.364429D+03          -7.510000D-04
5.220806D+02          -3.329000D-03
2.214595D+02          -1.191200D-02
1.009096D+02          -3.493300D-02
4.840115D+01          -7.998900D-02
2.398536D+01          -1.346360D-01
1.218250D+01          -1.385980D-01
6.242298D+00           3.027800D-02
3.110944D+00           3.332160D-01
1.509958D+00           4.561530D-01
7.108450D-01           2.850510D-01
2.731900D-01           4.614400D-02
1.042330D-01          -3.249000D-03
3.829100D-02           1.357000D-03
P   16   1.00
1.774569D+04           5.000000D-06
4.200721D+03           4.200000D-05
1.364429D+03           2.410000D-04
5.220806D+02           1.085000D-03
2.214595D+02           3.831000D-03
1.009096D+02           1.142300D-02
4.840115D+01           2.579200D-02
2.398536D+01           4.481800D-02
1.218250D+01           4.459800D-02
6.242298D+00          -1.117700D-02
3.110944D+00          -1.381340D-01
1.509958D+00          -1.882850D-01
7.108450D-01          -1.073990D-01
2.731900D-01           4.448630D-01
1.042330D-01           6.402390D-01
3.829100D-02           6.445700D-02
P   16   1.00
1.774569D+04           3.000000D-06
4.200721D+03           2.900000D-05
1.364429D+03           1.650000D-04
5.220806D+02           7.340000D-04
2.214595D+02           2.626000D-03
1.009096D+02           7.725000D-03
4.840115D+01           1.773300D-02
2.398536D+01           3.005500D-02
1.218250D+01           3.109400D-02
6.242298D+00          -1.004800D-02
3.110944D+00          -8.830600D-02
1.509958D+00          -1.298240D-01
7.108450D-01          -7.693700D-02
2.731900D-01           2.126610D-01
1.042330D-01           5.730610D-01
3.829100D-02           3.696510D-01
P   1   1.00
3.829100D-02           1.000000D+00
D   8   1.00
1.133440D+02           3.530000D-03
3.364140D+01           2.578400D-02
1.233100D+01           9.911900D-02
4.994780D+00           2.390730D-01
2.072800D+00           3.571990D-01
8.307530D-01           3.621880D-01
3.091780D-01           2.364610D-01
1.001300D-01           6.011800D-02
D   8   1.00
1.133440D+02          -3.890000D-03
3.364140D+01          -2.844200D-02
1.233100D+01          -1.124290D-01
4.994780D+00          -2.742570D-01
2.072800D+00          -3.155460D-01
8.307530D-01           5.710900D-02
3.091780D-01           5.636040D-01
1.001300D-01           3.846370D-01
D   1   1.00
1.001300D-01           1.000000D+00
F   2   1.00
3.224300D+00           4.222490D-01
7.758000D-01           7.714680D-01
****
$end


--------------------------------------------------------------
 Adding empirical dispersion correction 
 ----------------------------------------------------------------
 Doing -D3(BJ) with
 s6  =   1.00000
 s8  =   1.98890
 a1  =   0.39810
 a2  =   4.42110
 -D3 energy without 3body term =     -0.2192781656 hartrees
 ----------------------------------------------------------------
             Standard Nuclear Orientation (Angstroms)
    I     Atom           X                Y                Z
 ----------------------------------------------------------------
    1      C       3.0978882000    -1.5176615000    -1.5753844000
    2      C       4.4412249000    -1.8594400000    -1.3094894000
    3      C       5.4286716000    -1.6624184000    -2.3174246000
    4      C       5.0058290000    -1.2412930000    -3.5948686000
    5      C       3.6565450000    -0.9567201000    -3.8570222000
    6      C       2.7185211000    -1.0449520000    -2.8263791000
    7      H       4.7081474000    -2.1487590000    -0.3013573000
    8      O       1.4339626000    -0.6311766000    -2.9476190000
    9      C       6.9030515000    -1.6765792000    -2.0043842000
   10      O       7.6510400000    -1.0114972000    -2.7097996000
   11      N       7.3687334000    -2.2002146000    -0.8375122000
   12      H       6.7679596000    -2.8263171000    -0.2864983000
   13      C       8.5732095000    -1.7201608000    -0.1690043000
   14      H       9.2377350000    -2.5714538000     0.0907520000
   15      H       9.1653081000    -0.9958011000    -0.7784592000
   16      C       8.0677195000    -1.0073116000     1.1031077000
   17      H       8.8874102000    -0.7526905000     1.8084542000
   18      H       7.3837385000    -1.7122505000     1.6252885000
   19      C       7.3182740000     0.2891858000     0.7171005000
   20      H       6.7173789000     0.1695629000    -0.2048400000
   21      H       8.0772338000     1.0609382000     0.4688014000
   22      N       6.4417245000     0.7889323000     1.7830689000
   23      H       6.8547191000     0.6555707000     2.7352329000
   24      C       4.1052243000     1.1551627000     2.5027900000
   25      H       3.0619710000     0.7777934000     2.4242106000
   26      H       4.4144410000     1.0954217000     3.5683099000
   27      C       5.0642945000     0.2618746000     1.6969698000
   28      H       5.0263152000    -0.7845337000     2.0707256000
   29      H       4.7075960000     0.2493404000     0.6462795000
   30      C       4.1785440000     2.6337664000     2.0661726000
   31      H       3.6224896000     3.2697561000     2.7889124000
   32      H       5.2406187000     2.9521519000     2.1180892000
   33      C       3.6526463000     2.9211669000     0.6478845000
   34      H       4.0631859000     2.2198334000    -0.1041978000
   35      H       4.0005521000     3.9372298000     0.3641644000
   36      N       2.2086076000     2.9734442000     0.6218123000
   37      H       1.7629349000     3.7004433000     1.2052070000
   38      C       1.3853016000     2.1874447000    -0.2373139000
   39      O       1.8831045000     1.1018542000    -0.8860330000
   40      C       0.1010792000     2.5685700000    -0.4009507000
   41      H      -0.2332299000     3.4702723000     0.1079363000
   42      C      -2.1181281000     2.7576136000    -1.6320509000
   43      H      -2.6578840000     2.9719159000    -0.6833295000
   44      H      -1.7736020000     3.7305965000    -2.0481075000
   45      C      -3.1104200000     2.1577514000    -2.5989939000
   46      O      -3.3490160000     2.7574991000    -3.6384608000
   47      N      -3.7672741000     1.0027314000    -2.3028168000
   48      C      -4.7802868000     0.4194820000    -3.1720439000
   49      H      -3.5478439000     0.5198351000    -1.4196724000
   50      C      -6.1046118000     0.2284424000    -2.4213358000
   51      H      -4.4253368000    -0.5773066000    -3.5090514000
   52      H      -4.9617922000     1.0386374000    -4.0775470000
   53      C      -6.6895883000     1.5460629000    -1.8901283000
   54      H      -6.8390632000    -0.2559773000    -3.1016323000
   55      H      -5.9080160000    -0.4512760000    -1.5761035000
   56      C      -8.0295366000     1.3548595000    -1.1471587000
   57      H      -6.8705347000     2.2329162000    -2.7460597000
   58      H      -5.9611263000     2.0343635000    -1.2104104000
   59      H      -8.3876226000     2.3441975000    -0.7886085000
   60      H      -8.7894204000     0.9756054000    -1.8649296000
   61      C      -5.1519544000    -2.0299114000     0.8858989000
   62      C      -3.7044400000    -1.6498901000     0.7583991000
   63      O      -5.7795183000    -2.3869957000    -0.1000809000
   64      C      -3.1913553000    -0.7587674000     1.7335640000
   65      C      -2.8554423000    -2.0265065000    -0.3331840000
   66      C      -1.9176331000    -0.2642088000     1.6648011000
   67      C      -1.5322840000    -1.5032494000    -0.3883700000
   68      C      -1.1141662000    -0.6251922000     0.6192336000
   69      H      -1.5673430000     0.4358676000     2.4114401000
   70      O      -0.5996400000    -1.7484318000    -1.3645051000
   71      C      -0.8816884000     1.9316690000    -1.3093388000
   72      O      -0.7005259000     0.8075711000    -1.7731536000
   73      H       3.3673914000    -0.5945513000    -4.8325804000
   74      O       2.1265537000    -1.5159796000    -0.6367516000
   75      H      -3.2220388000    -2.6768409000    -1.1194616000
   76      O       0.0981580000    -0.1004051000     0.5176822000
   77      Fe      0.7197491000    -0.3641068000    -1.2057239000
   78      N      -7.9758448000     0.4181008000    -0.0128098000
   79      H      -7.8074633000    -0.5528860000    -0.3565006000
   80      N      -5.7924701000    -1.8144891000     2.0775968000
   81      H      -5.2594633000    -1.6055298000     2.9272269000
   82      C      -7.1989004000    -1.5282662000     2.2177019000
   83      H      -7.8139105000    -1.9329714000     1.3913836000
   84      H      -7.5554792000    -1.9902370000     3.1648484000
   85      C      -7.3355188000     0.0133726000     2.3373301000
   86      H      -8.3652227000     0.2833702000     2.6451400000
   87      H      -6.6422375000     0.3744229000     3.1341236000
   88      C      -7.0076225000     0.7745589000     1.0337982000
   89      H      -7.0697550000     1.8643629000     1.2493429000
   90      H      -5.9684883000     0.5623420000     0.6973229000
   91      H      -3.7600528000    -0.3609912000     2.5531253000
   92      H       5.7339649000    -1.0789220000    -4.3793891000
 ----------------------------------------------------------------
 Nuclear Repulsion Energy =        7542.67942958 hartrees
 There are      194 alpha and      189 beta electrons
 Requested basis set is non-standard
 There are 432 shells and 930 basis functions

 Total QAlloc Memory Limit   8000 MB
 Mega-Array Size       188 MB
 MEM_STATIC part       192 MB

 -----------------------------------------------------------------------
                STARTING GEOMETRY OPTIMIZER USING LIBOPT3
                by Peter F. McLaughlin, Yu Zhang, Evgeny Epifanovsky
 -----------------------------------------------------------------------

              Initial Energy and Gradient Calculation
   -- Checking Topology for Ill-Behaving Coordinates --

 -------------------------------------------
   Coordinate       |  Removed | Additions 
 -------------------------------------------
	Bonds                     0          0
	Angles                    3          0
	Torsions                  6          6
	Co-Linear Type5s          0          6
	Co-Linear Type6s          0          6
 -------------------------------------------

 ** Ill-Behaving Topology Definitions (No action needed.) **

  Ill-Defined Angles Removed: 
   8  77  76,  39  77  70,  72  77  74

  Ill-Defined Torsions Removed: 
   1  74  77  72,   6   8  77  76,  38  39  77  70,  67  70  77  39,  68  76  77   8
  71  72  77  74

     Done Checking Topology
 Adding empirical dispersion correction 
 ----------------------------------------------------------------
 Doing -D3(BJ) with
 s6  =   1.00000
 s8  =   1.98890
 a1  =   0.39810
 a2  =   4.42110
 -D3 energy without 3body term =     -0.2192781656 hartrees
 ----------------------------------------------------------------
             Standard Nuclear Orientation (Angstroms)
    I     Atom           X                Y                Z
 ----------------------------------------------------------------
    1      C       3.0978882000    -1.5176615000    -1.5753844000
    2      C       4.4412249000    -1.8594400000    -1.3094894000
    3      C       5.4286716000    -1.6624184000    -2.3174246000
    4      C       5.0058290000    -1.2412930000    -3.5948686000
    5      C       3.6565450000    -0.9567201000    -3.8570222000
    6      C       2.7185211000    -1.0449520000    -2.8263791000
    7      H       4.7081474000    -2.1487590000    -0.3013573000
    8      O       1.4339626000    -0.6311766000    -2.9476190000
    9      C       6.9030515000    -1.6765792000    -2.0043842000
   10      O       7.6510400000    -1.0114972000    -2.7097996000
   11      N       7.3687334000    -2.2002146000    -0.8375122000
   12      H       6.7679596000    -2.8263171000    -0.2864983000
   13      C       8.5732095000    -1.7201608000    -0.1690043000
   14      H       9.2377350000    -2.5714538000     0.0907520000
   15      H       9.1653081000    -0.9958011000    -0.7784592000
   16      C       8.0677195000    -1.0073116000     1.1031077000
   17      H       8.8874102000    -0.7526905000     1.8084542000
   18      H       7.3837385000    -1.7122505000     1.6252885000
   19      C       7.3182740000     0.2891858000     0.7171005000
   20      H       6.7173789000     0.1695629000    -0.2048400000
   21      H       8.0772338000     1.0609382000     0.4688014000
   22      N       6.4417245000     0.7889323000     1.7830689000
   23      H       6.8547191000     0.6555707000     2.7352329000
   24      C       4.1052243000     1.1551627000     2.5027900000
   25      H       3.0619710000     0.7777934000     2.4242106000
   26      H       4.4144410000     1.0954217000     3.5683099000
   27      C       5.0642945000     0.2618746000     1.6969698000
   28      H       5.0263152000    -0.7845337000     2.0707256000
   29      H       4.7075960000     0.2493404000     0.6462795000
   30      C       4.1785440000     2.6337664000     2.0661726000
   31      H       3.6224896000     3.2697561000     2.7889124000
   32      H       5.2406187000     2.9521519000     2.1180892000
   33      C       3.6526463000     2.9211669000     0.6478845000
   34      H       4.0631859000     2.2198334000    -0.1041978000
   35      H       4.0005521000     3.9372298000     0.3641644000
   36      N       2.2086076000     2.9734442000     0.6218123000
   37      H       1.7629349000     3.7004433000     1.2052070000
   38      C       1.3853016000     2.1874447000    -0.2373139000
   39      O       1.8831045000     1.1018542000    -0.8860330000
   40      C       0.1010792000     2.5685700000    -0.4009507000
   41      H      -0.2332299000     3.4702723000     0.1079363000
   42      C      -2.1181281000     2.7576136000    -1.6320509000
   43      H      -2.6578840000     2.9719159000    -0.6833295000
   44      H      -1.7736020000     3.7305965000    -2.0481075000
   45      C      -3.1104200000     2.1577514000    -2.5989939000
   46      O      -3.3490160000     2.7574991000    -3.6384608000
   47      N      -3.7672741000     1.0027314000    -2.3028168000
   48      C      -4.7802868000     0.4194820000    -3.1720439000
   49      H      -3.5478439000     0.5198351000    -1.4196724000
   50      C      -6.1046118000     0.2284424000    -2.4213358000
   51      H      -4.4253368000    -0.5773066000    -3.5090514000
   52      H      -4.9617922000     1.0386374000    -4.0775470000
   53      C      -6.6895883000     1.5460629000    -1.8901283000
   54      H      -6.8390632000    -0.2559773000    -3.1016323000
   55      H      -5.9080160000    -0.4512760000    -1.5761035000
   56      C      -8.0295366000     1.3548595000    -1.1471587000
   57      H      -6.8705347000     2.2329162000    -2.7460597000
   58      H      -5.9611263000     2.0343635000    -1.2104104000
   59      H      -8.3876226000     2.3441975000    -0.7886085000
   60      H      -8.7894204000     0.9756054000    -1.8649296000
   61      C      -5.1519544000    -2.0299114000     0.8858989000
   62      C      -3.7044400000    -1.6498901000     0.7583991000
   63      O      -5.7795183000    -2.3869957000    -0.1000809000
   64      C      -3.1913553000    -0.7587674000     1.7335640000
   65      C      -2.8554423000    -2.0265065000    -0.3331840000
   66      C      -1.9176331000    -0.2642088000     1.6648011000
   67      C      -1.5322840000    -1.5032494000    -0.3883700000
   68      C      -1.1141662000    -0.6251922000     0.6192336000
   69      H      -1.5673430000     0.4358676000     2.4114401000
   70      O      -0.5996400000    -1.7484318000    -1.3645051000
   71      C      -0.8816884000     1.9316690000    -1.3093388000
   72      O      -0.7005259000     0.8075711000    -1.7731536000
   73      H       3.3673914000    -0.5945513000    -4.8325804000
   74      O       2.1265537000    -1.5159796000    -0.6367516000
   75      H      -3.2220388000    -2.6768409000    -1.1194616000
   76      O       0.0981580000    -0.1004051000     0.5176822000
   77      Fe      0.7197491000    -0.3641068000    -1.2057239000
   78      N      -7.9758448000     0.4181008000    -0.0128098000
   79      H      -7.8074633000    -0.5528860000    -0.3565006000
   80      N      -5.7924701000    -1.8144891000     2.0775968000
   81      H      -5.2594633000    -1.6055298000     2.9272269000
   82      C      -7.1989004000    -1.5282662000     2.2177019000
   83      H      -7.8139105000    -1.9329714000     1.3913836000
   84      H      -7.5554792000    -1.9902370000     3.1648484000
   85      C      -7.3355188000     0.0133726000     2.3373301000
   86      H      -8.3652227000     0.2833702000     2.6451400000
   87      H      -6.6422375000     0.3744229000     3.1341236000
   88      C      -7.0076225000     0.7745589000     1.0337982000
   89      H      -7.0697550000     1.8643629000     1.2493429000
   90      H      -5.9684883000     0.5623420000     0.6973229000
   91      H      -3.7600528000    -0.3609912000     2.5531253000
   92      H       5.7339649000    -1.0789220000    -4.3793891000
 ----------------------------------------------------------------
 Nuclear Repulsion Energy =        7542.67942958 hartrees
 There are      194 alpha and      189 beta electrons
 Using C-PCM dielectric factor f(eps) = (eps-1)/eps = 0.987243
No default van der Waals radius is available for Z = 26
	Found R = 2.4400 A in the $van_der_waals section
 Discretize the solute cavity surface with Lebedev spheres
	Using 110 Lebedev grid points for each H atom
	Using 194 Lebedev grid points for other atoms
	Atomic van der Waals radii (Bondi set) will be scaled by 1.20
 Using smooth SwiG surface discretization
 Remove points where switching function is < 1.0e-08
 Keep 5495 surface tesserae and discard 8741 interior tesserae
 Molecular Surface Area = 675.565 Angst**2

 Requested basis set is non-standard
 There are 432 shells and 930 basis functions
 A cutoff of  1.0D-12 yielded  58714 shell pairs
 There are    252712 function pairs (    279457 Cartesian)
 Smallest overlap matrix eigenvalue = 1.48E-04

 Scale SEOQF with 1.000000e-02/1.000000e-01/1.000000e-01

 Standard Electronic Orientation quadrupole field applied
 Nucleus-field energy     =    -0.0000000407 hartrees
 ================ Generating on-the-fly SAD Guess ================
 Attempting to make child job directory: /data/scratch/C_FePBstar_enol_L_ctL_3sextet_b3lypD3bj_ccpVDZ_pcmH2O_opt20240124114530//Frg1/
 Attempting to make child job directory: /data/scratch/C_FePBstar_enol_L_ctL_3sextet_b3lypD3bj_ccpVDZ_pcmH2O_opt20240124114530//Frg2/
 Attempting to make child job directory: /data/scratch/C_FePBstar_enol_L_ctL_3sextet_b3lypD3bj_ccpVDZ_pcmH2O_opt20240124114530//Frg3/
 Attempting to make child job directory: /data/scratch/C_FePBstar_enol_L_ctL_3sextet_b3lypD3bj_ccpVDZ_pcmH2O_opt20240124114530//Frg4/
 Attempting to make child job directory: /data/scratch/C_FePBstar_enol_L_ctL_3sextet_b3lypD3bj_ccpVDZ_pcmH2O_opt20240124114530//Frg5/
 Creating input file /data/scratch/C_FePBstar_enol_L_ctL_3sextet_b3lypD3bj_ccpVDZ_pcmH2O_opt20240124114530/Frg1.input
 using default PutDataFrgm: nothing
 calling putenv with: QCSCRATCH=/data/scratch/C_FePBstar_enol_L_ctL_3sextet_b3lypD3bj_ccpVDZ_pcmH2O_opt20240124114530/ 
 Spawning Job For Fragment 0
 Done Job For Fragment 0
 calling putenv with: QCSCRATCH=/data/scratch 
 calling putenv with: QCTHREADS=20 
 Creating input file /data/scratch/C_FePBstar_enol_L_ctL_3sextet_b3lypD3bj_ccpVDZ_pcmH2O_opt20240124114530/Frg2.input
 using default PutDataFrgm: nothing
 calling putenv with: QCSCRATCH=/data/scratch/C_FePBstar_enol_L_ctL_3sextet_b3lypD3bj_ccpVDZ_pcmH2O_opt20240124114530/ 
 Spawning Job For Fragment 1
 Done Job For Fragment 1
 calling putenv with: QCSCRATCH=/data/scratch 
 calling putenv with: QCTHREADS=20 
 Creating input file /data/scratch/C_FePBstar_enol_L_ctL_3sextet_b3lypD3bj_ccpVDZ_pcmH2O_opt20240124114530/Frg3.input
 using default PutDataFrgm: nothing
 calling putenv with: QCSCRATCH=/data/scratch/C_FePBstar_enol_L_ctL_3sextet_b3lypD3bj_ccpVDZ_pcmH2O_opt20240124114530/ 
 Spawning Job For Fragment 2
 Done Job For Fragment 2
 calling putenv with: QCSCRATCH=/data/scratch 
 calling putenv with: QCTHREADS=20 
 Creating input file /data/scratch/C_FePBstar_enol_L_ctL_3sextet_b3lypD3bj_ccpVDZ_pcmH2O_opt20240124114530/Frg4.input
 using default PutDataFrgm: nothing
 calling putenv with: QCSCRATCH=/data/scratch/C_FePBstar_enol_L_ctL_3sextet_b3lypD3bj_ccpVDZ_pcmH2O_opt20240124114530/ 
 Spawning Job For Fragment 3
 Done Job For Fragment 3
 calling putenv with: QCSCRATCH=/data/scratch 
 calling putenv with: QCTHREADS=20 
 Creating input file /data/scratch/C_FePBstar_enol_L_ctL_3sextet_b3lypD3bj_ccpVDZ_pcmH2O_opt20240124114530/Frg5.input
 using default PutDataFrgm: nothing
 calling putenv with: QCSCRATCH=/data/scratch/C_FePBstar_enol_L_ctL_3sextet_b3lypD3bj_ccpVDZ_pcmH2O_opt20240124114530/ 
 Spawning Job For Fragment 4
 Done Job For Fragment 4
 calling putenv with: QCSCRATCH=/data/scratch 
 calling putenv with: QCTHREADS=20 
 Time for running child jobs:  CPU 0.03 s  wall 67.74 s
 ============= Method Specific SAD Guess Constructed =============
 Guess from on-the-fly superposition of atomic densities
 Warning: Energy on first SCF cycle will be non-variational

 -----------------------------------------------------------------------
  General SCF calculation program by
  Eric Jon Sundstrom, Paul Horn, Yuezhi Mao, Dmitri Zuev, Alec White,
  David Stuck, Shaama M.S., Shane Yost, Joonho Lee, David Small,
  Daniel Levine, Susi Lehtola, Hugh Burton, Evgeny Epifanovsky,
  Bang C. Huynh
 -----------------------------------------------------------------------
 Exchange:     0.2000 Hartree-Fock + 0.0800 Slater + 0.7200 B88
 Correlation:  0.1900 VWN1RPA + 0.8100 LYP
 Using SG-1 standard quadrature grid
 Dispersion:   Grimme D3
 using 20 threads for integral computing
 -------------------------------------------------------
 OpenMP Integral computing Module                
 Release: version 1.0, May 2013, Q-Chem Inc. Pittsburgh 
 -------------------------------------------------------
 C-PCM solvent model [f = (eps-1)/eps], solve by matrix inversion
 A unrestricted SCF calculation will be
 performed using DIIS
 SCF converges when DIIS error is below 1.0e-08
 ---------------------------------------
  Cycle       Energy         DIIS error
 ---------------------------------------
    1   -3572.8746348582      1.45e-02  
    2   -3552.1980087065      1.69e-03  
    3   -3551.1104223236      2.63e-03  
    4   -3553.2576905554      8.31e-04  
    5   -3553.4472844064      2.76e-04  
    6   -3553.4560909796      2.26e-04  
    7   -3553.4728004174      5.23e-05  
    8   -3553.4739907367      2.09e-05  
    9   -3553.4741922638      9.31e-06  
   10   -3553.4742312345      4.64e-06  
   11   -3553.4742415191      1.81e-06  
   12   -3553.4742429601      8.14e-07  
   13   -3553.4742433170      3.20e-07  
   14   -3553.4742433779      1.52e-07  
   15   -3553.4742434040      6.75e-08  
   16   -3553.4742434119      5.08e-08  
   17   -3553.4742434145      2.51e-08  
   18   -3553.4742434151      1.38e-08  
   19   -3553.4742434152      7.26e-09  Convergence criterion met
 ---------------------------------------
 SCF time:   CPU 43017.23s  wall 3109.00s 
<S^2> =          8.757978962

************** Final PCM Free Energy Summary **************
 G_electrostatic  =      -0.30366511 hartree =    -190.55273041 kcal/mol
 G_cavitation     =       0.00000000 hartree =       0.00000000 kcal/mol
 G_dispersion     =       0.00000000 hartree =       0.00000000 kcal/mol
 G_repulsion      =       0.00000000 hartree =       0.00000000 kcal/mol
 --------------------------------------------------
 Non-electrostatic Free Energy =       0.00000000 hartree =       0.00000000 kcal/mol
 Total                         =      -0.30366511 hartree =    -190.55273041 kcal/mol
 --------------------------------------------------
 SCF Energy (H0 + V/2)                       =   -3553.47424342 
 Solute Internal Energy (H0)                 =   -3553.17057831 
 Total Free Energy (H0 + V/2 + non-elec)     =   -3553.47424342 hartree
                                             = -2229838.74269760 kcal/mol
***********************************************************

 SCF   energy in the final basis set =    -3553.4742434152
 Total energy in the final basis set =    -3553.4742434152
 
 --------------------------------------------------------------
 
                    Orbital Energies (a.u.)
 --------------------------------------------------------------
 
 Alpha MOs
 -- Occupied --
******** -30.0723 -25.9246 -25.9227 -25.9224 -19.1246 -19.0970 -19.0953
-19.0937 -19.0878 -19.0779 -19.0760 -19.0759 -19.0711 -14.3429 -14.3371
-14.3354 -14.3351 -14.3013 -14.3012 -10.2785 -10.2736 -10.2706 -10.2680
-10.2632 -10.2142 -10.2134 -10.2107 -10.2069 -10.2052 -10.2006 -10.1990
-10.1988 -10.1984 -10.1978 -10.1969 -10.1951 -10.1934 -10.1780 -10.1764
-10.1756 -10.1727 -10.1724 -10.1719 -10.1707 -10.1695 -10.1694 -10.1644
-10.1637 -10.1623 -10.1582 -10.1508 -10.1454  -3.5640  -2.3417  -2.3388
 -2.3361  -1.0521  -1.0302  -1.0277  -1.0244  -0.9924  -0.9820  -0.9771
 -0.9384  -0.9345  -0.9101  -0.9076  -0.9065  -0.8955  -0.8849  -0.8827
 -0.8211  -0.8149  -0.7819  -0.7775  -0.7661  -0.7546  -0.7497  -0.7303
 -0.7223  -0.7157  -0.7081  -0.6962  -0.6945  -0.6854  -0.6630  -0.6526
 -0.6270  -0.6181  -0.5999  -0.5956  -0.5899  -0.5844  -0.5810  -0.5759
 -0.5749  -0.5665  -0.5603  -0.5585  -0.5535  -0.5514  -0.5458  -0.5100
 -0.5066  -0.5008  -0.4884  -0.4843  -0.4773  -0.4751  -0.4719  -0.4693
 -0.4675  -0.4645  -0.4615  -0.4593  -0.4577  -0.4557  -0.4488  -0.4469
 -0.4436  -0.4418  -0.4405  -0.4350  -0.4301  -0.4279  -0.4232  -0.4206
 -0.4193  -0.4126  -0.4102  -0.4090  -0.4056  -0.4037  -0.4002  -0.3976
 -0.3943  -0.3911  -0.3902  -0.3871  -0.3836  -0.3830  -0.3803  -0.3788
 -0.3746  -0.3709  -0.3678  -0.3667  -0.3655  -0.3608  -0.3603  -0.3577
 -0.3564  -0.3494  -0.3457  -0.3432  -0.3428  -0.3412  -0.3356  -0.3347
 -0.3344  -0.3337  -0.3272  -0.3262  -0.3239  -0.3184  -0.3173  -0.3168
 -0.3128  -0.3071  -0.2923  -0.2918  -0.2893  -0.2857  -0.2787  -0.2626
 -0.2563  -0.2535  -0.2461  -0.2446  -0.2414  -0.2398  -0.2386  -0.2381
 -0.2355  -0.2131  -0.2084  -0.2080  -0.2039  -0.1916  -0.1759  -0.1647
 -0.1630  -0.1597
 -- Virtual --
 -0.0132  -0.0085  -0.0047   0.0249   0.0263   0.0274   0.0449   0.0576
  0.0583   0.0630   0.0690   0.0694   0.0723   0.0759   0.0785   0.0821
  0.0834   0.0870   0.0900   0.0936   0.0962   0.0981   0.1035   0.1052
  0.1089   0.1111   0.1156   0.1192   0.1208   0.1229   0.1248   0.1268
  0.1318   0.1388   0.1400   0.1418   0.1469   0.1530   0.1547   0.1579
  0.1589   0.1604   0.1609   0.1646   0.1666   0.1672   0.1676   0.1708
  0.1729   0.1761   0.1807   0.1845   0.1927   0.1948   0.1966   0.1986
  0.2004   0.2025   0.2070   0.2122   0.2161   0.2216   0.2239   0.2275
  0.2279   0.2304   0.2349   0.2376   0.2414   0.2419   0.2476   0.2477
  0.2523   0.2548   0.2558   0.2631   0.2658   0.2692   0.2789   0.2854
  0.2873   0.2895   0.2916   0.2956   0.2975   0.3075   0.3164   0.3167
  0.3270   0.3304   0.3358   0.3482   0.3493   0.3638   0.3688   0.3708
  0.3737   0.3749   0.3836   0.3921   0.3927   0.3984   0.4103   0.4160
  0.4190   0.4198   0.4247   0.4295   0.4306   0.4310   0.4357   0.4374
  0.4400   0.4452   0.4489   0.4518   0.4574   0.4608   0.4629   0.4679
  0.4699   0.4729   0.4749   0.4792   0.4817   0.4839   0.4879   0.4890
  0.4937   0.4943   0.4971   0.4994   0.5026   0.5057   0.5080   0.5114
  0.5149   0.5198   0.5210   0.5235   0.5268   0.5314   0.5347   0.5371
  0.5421   0.5482   0.5521   0.5534   0.5554   0.5604   0.5625   0.5653
  0.5664   0.5679   0.5707   0.5769   0.5810   0.5836   0.5862   0.5878
  0.5916   0.5932   0.5936   0.5945   0.6030   0.6033   0.6075   0.6100
  0.6115   0.6143   0.6169   0.6196   0.6201   0.6220   0.6280   0.6298
  0.6319   0.6342   0.6379   0.6400   0.6401   0.6426   0.6437   0.6459
  0.6486   0.6521   0.6555   0.6575   0.6591   0.6594   0.6616   0.6625
  0.6670   0.6692   0.6723   0.6749   0.6772   0.6791   0.6825   0.6848
  0.6853   0.6866   0.6879   0.6953   0.6968   0.6986   0.7002   0.7030
  0.7065   0.7084   0.7114   0.7131   0.7161   0.7171   0.7198   0.7225
  0.7237   0.7311   0.7324   0.7353   0.7367   0.7399   0.7453   0.7459
  0.7496   0.7540   0.7548   0.7576   0.7646   0.7710   0.7762   0.7769
  0.7842   0.7894   0.7950   0.8012   0.8038   0.8090   0.8156   0.8202
  0.8285   0.8293   0.8332   0.8431   0.8472   0.8542   0.8551   0.8639
  0.8660   0.8726   0.8746   0.8765   0.8836   0.8910   0.8929   0.8961
  0.9029   0.9050   0.9064   0.9087   0.9174   0.9218   0.9267   0.9275
  0.9311   0.9321   0.9385   0.9403   0.9438   0.9507   0.9611   0.9625
  0.9670   0.9703   0.9758   0.9822   0.9939   0.9964   0.9977   1.0025
  1.0073   1.0116   1.0127   1.0228   1.0268   1.0289   1.0330   1.0368
  1.0397   1.0495   1.0525   1.0546   1.0582   1.0638   1.0708   1.0734
  1.0835   1.0890   1.0929   1.0943   1.1015   1.1031   1.1073   1.1100
  1.1164   1.1226   1.1269   1.1285   1.1331   1.1380   1.1441   1.1486
  1.1516   1.1595   1.1620   1.1691   1.1704   1.1783   1.1792   1.1831
  1.1879   1.1894   1.1941   1.1961   1.1997   1.2087   1.2117   1.2155
  1.2189   1.2245   1.2324   1.2354   1.2379   1.2434   1.2504   1.2541
  1.2576   1.2656   1.2672   1.2702   1.2757   1.2822   1.2879   1.2923
  1.2975   1.3069   1.3089   1.3153   1.3199   1.3266   1.3304   1.3380
  1.3425   1.3479   1.3493   1.3532   1.3611   1.3628   1.3704   1.3722
  1.3781   1.3839   1.3893   1.3937   1.4009   1.4045   1.4111   1.4165
  1.4175   1.4222   1.4297   1.4324   1.4368   1.4448   1.4496   1.4520
  1.4587   1.4607   1.4659   1.4699   1.4745   1.4812   1.4854   1.4915
  1.4945   1.4989   1.5029   1.5062   1.5152   1.5174   1.5195   1.5237
  1.5262   1.5378   1.5403   1.5434   1.5461   1.5510   1.5531   1.5567
  1.5599   1.5644   1.5674   1.5705   1.5755   1.5819   1.5832   1.5878
  1.5901   1.5928   1.6002   1.6057   1.6065   1.6084   1.6115   1.6136
  1.6150   1.6182   1.6200   1.6222   1.6230   1.6288   1.6330   1.6336
  1.6377   1.6392   1.6399   1.6420   1.6427   1.6475   1.6530   1.6564
  1.6594   1.6626   1.6644   1.6683   1.6728   1.6743   1.6763   1.6780
  1.6815   1.6852   1.6862   1.6885   1.6946   1.6961   1.6966   1.7012
  1.7043   1.7075   1.7095   1.7108   1.7148   1.7180   1.7192   1.7206
  1.7251   1.7270   1.7292   1.7295   1.7346   1.7382   1.7428   1.7432
  1.7455   1.7508   1.7541   1.7582   1.7598   1.7637   1.7653   1.7664
  1.7706   1.7724   1.7745   1.7780   1.7843   1.7859   1.7867   1.7893
  1.7932   1.7946   1.7989   1.8047   1.8082   1.8124   1.8144   1.8164
  1.8214   1.8236   1.8284   1.8298   1.8325   1.8360   1.8442   1.8484
  1.8524   1.8542   1.8563   1.8588   1.8625   1.8671   1.8701   1.8742
  1.8819   1.8830   1.8894   1.8938   1.8964   1.8979   1.9033   1.9095
  1.9106   1.9147   1.9186   1.9228   1.9251   1.9357   1.9368   1.9420
  1.9441   1.9450   1.9477   1.9521   1.9585   1.9595   1.9642   1.9698
  1.9717   1.9755   1.9816   1.9848   1.9876   1.9924   1.9959   2.0028
  2.0064   2.0181   2.0209   2.0265   2.0283   2.0340   2.0405   2.0479
  2.0496   2.0534   2.0705   2.0760   2.0809   2.0879   2.0879   2.0965
  2.0986   2.1078   2.1110   2.1130   2.1222   2.1241   2.1264   2.1297
  2.1343   2.1383   2.1465   2.1480   2.1570   2.1590   2.1692   2.1746
  2.1783   2.1821   2.1858   2.1920   2.1963   2.2034   2.2091   2.2105
  2.2173   2.2204   2.2285   2.2321   2.2428   2.2450   2.2473   2.2499
  2.2551   2.2599   2.2657   2.2687   2.2715   2.2764   2.2840   2.2886
  2.2901   2.2921   2.2946   2.2991   2.3065   2.3160   2.3190   2.3193
  2.3243   2.3262   2.3291   2.3335   2.3387   2.3495   2.3561   2.3609
  2.3658   2.3756   2.3793   2.3927   2.3997   2.4094   2.4176   2.4229
  2.4296   2.4334   2.4403   2.4458   2.4496   2.4592   2.4625   2.4656
  2.4732   2.4766   2.4838   2.4844   2.4882   2.4938   2.5008   2.5048
  2.5080   2.5156   2.5228   2.5321   2.5397   2.5446   2.5507   2.5556
  2.5632   2.5735   2.5812   2.5909   2.6012   2.6019   2.6121   2.6134
  2.6258   2.6313   2.6326   2.6464   2.6493   2.6624   2.6675   2.6750
  2.6864   2.6908   2.6976   2.7000   2.7080   2.7134   2.7144   2.7264
  2.7307   2.7373   2.7469   2.7552   2.7597   2.7627   2.7676   2.7704
  2.7815   2.7874   2.7922   2.7935   2.7985   2.8110   2.8168   2.8211
  2.8326   2.8368   2.8515   2.8573   2.8610   2.8651   2.8902   2.8942
  2.8992   2.9060   2.9107   2.9414   2.9572   2.9836   3.0267   3.0295
  3.0420   3.0468   3.0551   3.0620   3.0809   3.0860   3.1076   3.1137
  3.1177   3.1249   3.1346   3.1577   3.1675   3.1800   3.2067   3.2168
  3.2331   3.2612   3.2789   3.3262   3.3564   3.3755   3.4105   3.4378
  3.4601   3.4645   3.4671   3.4836   3.4896   3.4988   3.5114   3.5153
  3.5291   3.5370   3.6141   3.7057   3.7404   3.7467   3.7831   3.8765
 
 Beta MOs
 -- Occupied --
******** -29.9787 -25.8461 -25.8449 -25.8448 -19.1218 -19.0953 -19.0937
-19.0936 -19.0877 -19.0737 -19.0717 -19.0712 -19.0665 -14.3429 -14.3371
-14.3353 -14.3348 -14.3013 -14.3012 -10.2785 -10.2736 -10.2706 -10.2679
-10.2632 -10.2142 -10.2134 -10.2107 -10.2069 -10.2052 -10.2005 -10.1990
-10.1988 -10.1984 -10.1978 -10.1969 -10.1951 -10.1933 -10.1780 -10.1764
-10.1755 -10.1726 -10.1724 -10.1719 -10.1706 -10.1694 -10.1693 -10.1643
-10.1637 -10.1621 -10.1580 -10.1505 -10.1450  -3.3468  -2.1122  -2.1097
 -2.1096  -1.0473  -1.0300  -1.0276  -1.0243  -0.9847  -0.9752  -0.9697
 -0.9288  -0.9251  -0.9101  -0.9076  -0.9064  -0.8935  -0.8848  -0.8827
 -0.8199  -0.8137  -0.7815  -0.7773  -0.7656  -0.7544  -0.7494  -0.7297
 -0.7213  -0.7148  -0.7072  -0.6947  -0.6937  -0.6849  -0.6625  -0.6524
 -0.6267  -0.6180  -0.5989  -0.5948  -0.5882  -0.5838  -0.5794  -0.5754
 -0.5743  -0.5662  -0.5586  -0.5578  -0.5533  -0.5499  -0.5408  -0.5054
 -0.5025  -0.4990  -0.4842  -0.4817  -0.4765  -0.4730  -0.4677  -0.4668
 -0.4642  -0.4593  -0.4582  -0.4558  -0.4542  -0.4535  -0.4452  -0.4430
 -0.4421  -0.4399  -0.4364  -0.4281  -0.4255  -0.4214  -0.4207  -0.4176
 -0.4143  -0.4078  -0.4044  -0.4029  -0.4000  -0.3989  -0.3950  -0.3939
 -0.3920  -0.3892  -0.3874  -0.3829  -0.3818  -0.3791  -0.3775  -0.3727
 -0.3696  -0.3666  -0.3653  -0.3637  -0.3589  -0.3533  -0.3503  -0.3465
 -0.3459  -0.3422  -0.3397  -0.3388  -0.3356  -0.3343  -0.3336  -0.3266
 -0.3241  -0.3184  -0.3168  -0.3134  -0.3118  -0.3069  -0.2991  -0.2909
 -0.2897  -0.2842  -0.2709  -0.2687  -0.2541  -0.2510  -0.2470  -0.2452
 -0.2441  -0.2413  -0.2405  -0.2384  -0.2375  -0.2354  -0.2128  -0.2084
 -0.2050  -0.2038  -0.1892  -0.1679  -0.1646
 -- Virtual --
 -0.0373  -0.0261  -0.0222  -0.0064   0.0001   0.0029   0.0258   0.0269
  0.0305   0.0451   0.0514   0.0567   0.0583   0.0614   0.0637   0.0697
  0.0703   0.0729   0.0762   0.0789   0.0829   0.0842   0.0888   0.0911
  0.0953   0.0973   0.0991   0.1037   0.1057   0.1095   0.1115   0.1160
  0.1196   0.1210   0.1231   0.1254   0.1270   0.1320   0.1389   0.1403
  0.1420   0.1473   0.1532   0.1549   0.1581   0.1591   0.1606   0.1611
  0.1650   0.1668   0.1674   0.1678   0.1711   0.1732   0.1767   0.1811
  0.1851   0.1933   0.1954   0.1972   0.1990   0.2014   0.2033   0.2082
  0.2125   0.2163   0.2221   0.2241   0.2277   0.2291   0.2309   0.2352
  0.2380   0.2418   0.2430   0.2479   0.2501   0.2535   0.2559   0.2572
  0.2640   0.2662   0.2694   0.2808   0.2860   0.2886   0.2899   0.2920
  0.2966   0.2983   0.3088   0.3173   0.3192   0.3280   0.3331   0.3378
  0.3505   0.3520   0.3655   0.3699   0.3742   0.3774   0.3781   0.3867
  0.3948   0.3959   0.4015   0.4117   0.4195   0.4200   0.4215   0.4264
  0.4310   0.4317   0.4356   0.4378   0.4395   0.4416   0.4459   0.4508
  0.4535   0.4590   0.4618   0.4663   0.4695   0.4708   0.4740   0.4766
  0.4826   0.4830   0.4867   0.4885   0.4904   0.4943   0.4963   0.4977
  0.5001   0.5045   0.5080   0.5101   0.5124   0.5157   0.5210   0.5227
  0.5248   0.5285   0.5325   0.5355   0.5378   0.5426   0.5488   0.5530
  0.5548   0.5564   0.5616   0.5636   0.5660   0.5673   0.5685   0.5711
  0.5775   0.5816   0.5838   0.5868   0.5885   0.5923   0.5935   0.5943
  0.5950   0.6036   0.6042   0.6080   0.6105   0.6126   0.6146   0.6173
  0.6201   0.6214   0.6225   0.6284   0.6309   0.6324   0.6351   0.6389
  0.6406   0.6411   0.6429   0.6450   0.6466   0.6493   0.6524   0.6559
  0.6578   0.6595   0.6598   0.6619   0.6629   0.6678   0.6697   0.6734
  0.6753   0.6780   0.6796   0.6835   0.6852   0.6857   0.6871   0.6890
  0.6963   0.6974   0.6990   0.7012   0.7044   0.7073   0.7093   0.7120
  0.7154   0.7170   0.7183   0.7205   0.7233   0.7244   0.7318   0.7347
  0.7364   0.7375   0.7415   0.7473   0.7476   0.7500   0.7555   0.7562
  0.7588   0.7664   0.7725   0.7769   0.7778   0.7861   0.7898   0.7960
  0.8014   0.8053   0.8126   0.8177   0.8284   0.8294   0.8336   0.8354
  0.8461   0.8476   0.8580   0.8606   0.8670   0.8677   0.8745   0.8750
  0.8787   0.8866   0.8917   0.8982   0.8997   0.9048   0.9078   0.9106
  0.9160   0.9178   0.9250   0.9292   0.9293   0.9317   0.9379   0.9399
  0.9409   0.9489   0.9533   0.9625   0.9644   0.9714   0.9720   0.9773
  0.9834   0.9955   0.9971   1.0002   1.0050   1.0122   1.0127   1.0149
  1.0246   1.0281   1.0303   1.0349   1.0382   1.0406   1.0506   1.0550
  1.0557   1.0599   1.0656   1.0721   1.0742   1.0850   1.0918   1.0942
  1.0963   1.1026   1.1041   1.1090   1.1116   1.1172   1.1236   1.1280
  1.1299   1.1350   1.1408   1.1454   1.1490   1.1529   1.1603   1.1636
  1.1694   1.1723   1.1794   1.1811   1.1848   1.1897   1.1914   1.1959
  1.1981   1.2017   1.2105   1.2133   1.2162   1.2207   1.2261   1.2331
  1.2369   1.2386   1.2455   1.2527   1.2552   1.2588   1.2667   1.2691
  1.2722   1.2800   1.2834   1.2896   1.2941   1.2996   1.3079   1.3110
  1.3162   1.3219   1.3301   1.3317   1.3383   1.3461   1.3498   1.3527
  1.3565   1.3637   1.3727   1.3740   1.3751   1.3799   1.3861   1.3943
  1.3977   1.4045   1.4085   1.4134   1.4211   1.4246   1.4303   1.4316
  1.4349   1.4402   1.4466   1.4529   1.4547   1.4643   1.4662   1.4674
  1.4725   1.4766   1.4832   1.4886   1.4921   1.4983   1.5020   1.5071
  1.5101   1.5173   1.5200   1.5224   1.5264   1.5275   1.5438   1.5459
  1.5470   1.5493   1.5543   1.5569   1.5586   1.5631   1.5690   1.5710
  1.5741   1.5808   1.5831   1.5887   1.5906   1.5927   1.5944   1.6024
  1.6071   1.6095   1.6107   1.6145   1.6168   1.6194   1.6205   1.6226
  1.6270   1.6275   1.6312   1.6342   1.6355   1.6389   1.6407   1.6432
  1.6445   1.6470   1.6538   1.6570   1.6598   1.6623   1.6650   1.6668
  1.6694   1.6737   1.6764   1.6794   1.6816   1.6830   1.6868   1.6893
  1.6928   1.6965   1.6967   1.6991   1.7023   1.7060   1.7094   1.7120
  1.7160   1.7167   1.7194   1.7212   1.7232   1.7267   1.7281   1.7307
  1.7325   1.7359   1.7413   1.7438   1.7448   1.7486   1.7523   1.7570
  1.7591   1.7630   1.7668   1.7674   1.7684   1.7727   1.7733   1.7785
  1.7804   1.7849   1.7873   1.7891   1.7909   1.7943   1.7964   1.8004
  1.8082   1.8118   1.8160   1.8171   1.8193   1.8228   1.8255   1.8294
  1.8315   1.8347   1.8407   1.8450   1.8505   1.8537   1.8557   1.8580
  1.8633   1.8669   1.8711   1.8729   1.8766   1.8848   1.8866   1.8906
  1.8981   1.8987   1.9002   1.9058   1.9114   1.9145   1.9176   1.9201
  1.9240   1.9265   1.9368   1.9393   1.9434   1.9461   1.9482   1.9488
  1.9531   1.9602   1.9639   1.9659   1.9714   1.9724   1.9779   1.9834
  1.9857   1.9896   1.9931   1.9974   2.0047   2.0086   2.0191   2.0215
  2.0278   2.0290   2.0355   2.0416   2.0496   2.0510   2.0561   2.0738
  2.0774   2.0815   2.0891   2.0896   2.0975   2.0994   2.1098   2.1133
  2.1152   2.1238   2.1258   2.1281   2.1326   2.1353   2.1403   2.1473
  2.1501   2.1582   2.1611   2.1709   2.1761   2.1803   2.1842   2.1875
  2.1928   2.1990   2.2038   2.2095   2.2122   2.2199   2.2247   2.2322
  2.2408   2.2450   2.2474   2.2476   2.2517   2.2559   2.2614   2.2674
  2.2710   2.2761   2.2786   2.2868   2.2905   2.2921   2.2930   2.2960
  2.3016   2.3094   2.3168   2.3195   2.3209   2.3263   2.3272   2.3300
  2.3348   2.3416   2.3523   2.3610   2.3616   2.3670   2.3772   2.3825
  2.3935   2.4017   2.4095   2.4180   2.4274   2.4302   2.4360   2.4411
  2.4480   2.4525   2.4599   2.4639   2.4670   2.4744   2.4767   2.4852
  2.4895   2.4913   2.4958   2.5015   2.5066   2.5084   2.5191   2.5254
  2.5336   2.5408   2.5453   2.5534   2.5558   2.5661   2.5743   2.5826
  2.5948   2.6017   2.6051   2.6143   2.6152   2.6283   2.6320   2.6378
  2.6487   2.6529   2.6645   2.6681   2.6841   2.6907   2.6986   2.7010
  2.7060   2.7083   2.7165   2.7175   2.7286   2.7322   2.7465   2.7500
  2.7647   2.7670   2.7678   2.7721   2.7800   2.7833   2.7881   2.7949
  2.7988   2.8028   2.8162   2.8210   2.8217   2.8366   2.8387   2.8573
  2.8614   2.8676   2.8812   2.8946   2.8990   2.9050   2.9111   2.9244
  2.9516   2.9674   2.9998   3.0296   3.0369   3.0450   3.0620   3.0756
  3.0859   3.0877   3.1112   3.1192   3.1318   3.1365   3.1408   3.1720
  3.1849   3.1911   3.2039   3.2333   3.2624   3.2727   3.3064   3.3332
  3.3396   3.3929   3.4038   3.4266   3.4599   3.4636   3.4786   3.4798
  3.4839   3.4962   3.4994   3.5149   3.5191   3.5398   3.5463   3.6190
  3.7208   3.7524   3.8414   3.8746   3.9664
 --------------------------------------------------------------
 
          Ground-State Mulliken Net Atomic Charges

     Atom                 Charge (a.u.)    Spin (a.u.)
  --------------------------------------------------------
      1 C                     0.143304       0.007308
      2 C                    -0.074050       0.013516
      3 C                    -0.040517       0.004403
      4 C                     0.010418       0.003232
      5 C                    -0.041922       0.008198
      6 C                     0.153460       0.009143
      7 H                    -0.066396      -0.000056
      8 O                    -0.480745       0.120133
      9 C                     0.133040       0.000392
     10 O                    -0.342159       0.001333
     11 N                    -0.153463       0.000186
     12 H                     0.120397      -0.000000
     13 C                     0.089777       0.000002
     14 H                     0.016715       0.000008
     15 H                     0.030952      -0.000003
     16 C                    -0.033016       0.000022
     17 H                     0.008480       0.000011
     18 H                     0.012106      -0.000001
     19 C                     0.071393      -0.000007
     20 H                     0.026531       0.000004
     21 H                    -0.002014       0.000000
     22 N                    -0.248457       0.000012
     23 H                     0.095504      -0.000002
     24 C                    -0.009524       0.000074
     25 H                     0.012789       0.000086
     26 H                     0.000630       0.000010
     27 C                     0.038104       0.000028
     28 H                     0.004082       0.000029
     29 H                     0.055194       0.000133
     30 C                    -0.005507       0.000154
     31 H                    -0.004597       0.000053
     32 H                    -0.015258       0.000134
     33 C                     0.098208      -0.000202
     34 H                     0.035500       0.001062
     35 H                     0.009084       0.000517
     36 N                    -0.196571       0.010331
     37 H                     0.119856       0.001332
     38 C                     0.256923       0.013234
     39 O                    -0.440295       0.085932
     40 C                    -0.075098       0.022564
     41 H                    -0.050477      -0.000993
     42 C                     0.055212       0.006388
     43 H                     0.071354       0.000880
     44 H                     0.050526      -0.000323
     45 C                     0.099051       0.000267
     46 O                    -0.341167       0.000160
     47 N                    -0.148984      -0.000137
     48 C                     0.102985       0.000001
     49 H                     0.132306      -0.000069
     50 C                    -0.057256       0.000010
     51 H                     0.020043      -0.000011
     52 H                     0.026725      -0.000003
     53 C                    -0.029872       0.000012
     54 H                     0.004442      -0.000001
     55 H                     0.024928      -0.000010
     56 C                     0.084074      -0.000002
     57 H                    -0.005449       0.000001
     58 H                     0.011495       0.000010
     59 H                     0.008276       0.000001
     60 H                     0.003552       0.000001
     61 C                     0.147422       0.000307
     62 C                    -0.027627       0.009525
     63 O                    -0.333384       0.001455
     64 C                    -0.000096       0.000088
     65 C                    -0.080803       0.010805
     66 C                    -0.040117       0.013074
     67 C                     0.141483       0.010066
     68 C                     0.169508       0.002465
     69 H                    -0.061822       0.000062
     70 O                    -0.478704       0.125296
     71 C                     0.117844       0.003957
     72 O                    -0.302545       0.062896
     73 H                    -0.056526       0.000286
     74 O                    -0.467148       0.132273
     75 H                    -0.071098       0.000030
     76 O                    -0.448162       0.140070
     77 Fe                    0.521112       4.175976
     78 N                    -0.268186       0.000016
     79 H                     0.097583       0.000003
     80 N                    -0.142679       0.000964
     81 H                     0.117284      -0.000001
     82 C                     0.075177       0.000006
     83 H                     0.029614       0.000001
     84 H                     0.022012       0.000030
     85 C                    -0.004721       0.000099
     86 H                    -0.005300       0.000045
     87 H                     0.007810      -0.000009
     88 C                     0.055259       0.000026
     89 H                     0.019046       0.000006
     90 H                     0.018419       0.000055
     91 H                    -0.053031       0.000422
     92 H                    -0.072244       0.000222
  --------------------------------------------------------
  Sum of atomic charges =    -2.000000
  Sum of spin   charges =     5.000000

 -----------------------------------------------------------------
                    Cartesian Multipole Moments
 -----------------------------------------------------------------
    Charge (ESU x 10^10)
                -9.6064
    Dipole Moment (Debye)
         X      -6.6590      Y       9.0864      Z      24.0758
       Tot      26.5810
    Quadrupole Moments (Debye-Ang)
        XX    -418.6053     XY      -4.3967     YY    -324.1529
        XZ      37.2635     YZ      -0.5718     ZZ    -354.5314
    Octopole Moments (Debye-Ang^2)
       XXX    -147.8371    XXY      38.1098    XYY      75.7509
       YYY      80.6413    XXZ     673.1137    XYZ     -92.0561
       YYZ     253.8752    XZZ    -154.0683    YZZ     -26.3353
       ZZZ     706.9392
    Hexadecapole Moments (Debye-Ang^3)
      XXXX  -48900.7129   XXXY     487.1105   XXYY   -8387.0609
      XYYY     785.7852   YYYY   -5013.7188   XXXZ    3159.5781
      XXYZ    -426.2939   XYYZ      79.5829   YYYZ      76.5359
      XXZZ   -9011.1938   XYZZ     753.7752   YYZZ   -2214.3768
      XZZZ     612.9953   YZZZ      69.8587   ZZZZ   -7177.8604
 -----------------------------------------------------------------
 Calculating analytic gradient of the SCF energy
 Gradient of SCF Energy
            1           2           3           4           5           6
    1   0.0294445  -0.0176794  -0.0683665   0.0127101  -0.0206323   0.0570289
    2   0.0024617   0.0086431   0.0154117   0.0098089   0.0079486  -0.0270877
    3  -0.0458508   0.0207222  -0.0261614  -0.0072162   0.0178148   0.0040256
            7           8           9          10          11          12
    1  -0.0161152   0.0256737   0.0992846  -0.0945267  -0.0302186   0.0241882
    2   0.0165001  -0.0045742   0.0433916  -0.0700359   0.0117669   0.0167040
    3  -0.0578710   0.0609181  -0.0526755   0.0858477   0.0040066  -0.0200412
           13          14          15          16          17          18
    1   0.0141206  -0.0135807  -0.0110375  -0.0018160  -0.0151965   0.0139491
    2  -0.0007778   0.0168118  -0.0132047  -0.0060181  -0.0036573   0.0122802
    3  -0.0132491  -0.0050686   0.0146692   0.0079543  -0.0109817  -0.0110957
           19          20          21          22          23          24
    1  -0.0076121   0.0212511  -0.0204289   0.0121666  -0.0040172  -0.0144776
    2   0.0166582   0.0078460  -0.0206558  -0.0222614   0.0051622  -0.0142853
    3  -0.0311316   0.0304269   0.0054318   0.0111669  -0.0123226   0.0018461
           25          26          27          28          29          30
    1   0.0362485  -0.0052342  -0.0285243   0.0042782   0.0111590  -0.0012443
    2   0.0152555   0.0013350  -0.0193234   0.0327522   0.0005641   0.0149458
    3   0.0033676  -0.0276522  -0.0190497  -0.0112638   0.0404969   0.0029557
           31          32          33          34          35          36
    1   0.0127137  -0.0229757   0.0114047  -0.0158892  -0.0132893  -0.0024696
    2  -0.0147457  -0.0103103  -0.0076060   0.0290571  -0.0285534   0.0247818
    3  -0.0172465  -0.0013464  -0.0225221   0.0292142   0.0085812   0.0190365
           37          38          39          40          41          42
    1   0.0162682  -0.0635575  -0.0487709   0.0763044   0.0161419   0.0008609
    2  -0.0223527   0.0230912  -0.0325798   0.0097667  -0.0409074   0.0095630
    3  -0.0151873  -0.0088875  -0.0006576   0.0229794  -0.0221954  -0.0020258
           43          44          45          46          47          48
    1   0.0143646  -0.0115037  -0.0282667   0.0274455   0.0137113   0.0029814
    2  -0.0072266  -0.0305923   0.0498682  -0.0756697  -0.0029986  -0.0094261
    3  -0.0310112   0.0122038  -0.0803090   0.1198224   0.0219165  -0.0144049
           49          50          51          52          53          54
    1  -0.0136875   0.0094101  -0.0131080   0.0048113   0.0060757   0.0173091
    2   0.0282093  -0.0173481   0.0366398  -0.0174570   0.0111373   0.0121588
    3  -0.0413481  -0.0036439   0.0124037   0.0269463   0.0015946   0.0170145
           55          56          57          58          59          60
    1  -0.0062390  -0.0180214   0.0040304  -0.0178465   0.0072853   0.0155912
    2   0.0192844   0.0119454  -0.0163526  -0.0121819  -0.0195188   0.0078462
    3  -0.0249335  -0.0007902   0.0191132  -0.0158101  -0.0080619   0.0141666
           61          62          63          64          65          66
    1  -0.0798282   0.0566923   0.0740412   0.0303851  -0.0074594   0.0044777
    2  -0.0480324   0.0144417   0.0520567   0.0204194  -0.0114120  -0.0072848
    3  -0.0630942  -0.0105903   0.0985414   0.0045888  -0.0366190  -0.0321899
           67          68          69          70          71          72
    1  -0.0118999  -0.0640903  -0.0173674   0.0192532  -0.0051684   0.0203396
    2   0.0128417  -0.0119597  -0.0381584   0.0464714  -0.0889908   0.0905247
    3   0.0529451   0.0256109  -0.0420498   0.0248450  -0.0495529   0.0677358
           73          74          75          76          77          78
    1   0.0160670  -0.0064550   0.0220897  -0.0330847  -0.0049960   0.0234118
    2  -0.0240154   0.0361549   0.0408255  -0.0343009   0.0085642  -0.0165551
    3   0.0665648  -0.0530346   0.0493957  -0.0502826   0.0036142  -0.0164047
           79          80          81          82          83          84
    1  -0.0079446   0.0100896  -0.0196243  -0.0026464   0.0125438   0.0071658
    2   0.0171608   0.0237925  -0.0094342  -0.0205703   0.0100333   0.0077476
    3   0.0076914  -0.0034219  -0.0194510  -0.0100313   0.0193280  -0.0143951
           85          86          87          88          89          90
    1  -0.0014010   0.0190991  -0.0088135   0.0150143   0.0017723  -0.0242257
    2   0.0041071  -0.0050291  -0.0041301   0.0128219  -0.0202155   0.0059200
    3   0.0056407  -0.0066799  -0.0118287   0.0050349  -0.0024678   0.0063924
           91          92
    1   0.0290575  -0.0383751
    2  -0.0163163  -0.0093667
    3  -0.0384901   0.0480243
 Max gradient component =       1.198E-01
 RMS gradient           =       3.024E-02
 Computing fast CPCM-SWIG gradient
 Updating gradient with PCM contributions...
 -- total gradient after adding PCM contribution --
---------------------------------------------------
  Atom         X              Y              Z     
---------------------------------------------------
   1      -0.005820       0.014412      -0.048355
   2       0.003047      -0.008249       0.016098
   3       0.003006       0.012093      -0.008449
   4       0.002605       0.000556      -0.004242
   5      -0.015033       0.003678      -0.007180
   6       0.031453      -0.017233       0.034684
   7      -0.001735       0.001705      -0.005885
   8      -0.034071       0.013037       0.032202
   9       0.020531      -0.010818      -0.008613
  10      -0.022160      -0.010715       0.021588
  11       0.005390       0.018942       0.003869
  12      -0.005371      -0.009340       0.005931
  13      -0.003755      -0.001926      -0.014960
  14       0.002933      -0.004045       0.002315
  15       0.011948       0.011523       0.001852
  16      -0.000395      -0.000421       0.004608
  17       0.002245       0.002773       0.004133
  18      -0.002415      -0.005670       0.000498
  19      -0.006991      -0.001564      -0.012816
  20      -0.000949       0.002137      -0.006684
  21       0.000766       0.001700      -0.001520
  22       0.004003      -0.003671       0.004585
  23       0.009104       0.001493       0.019541
  24      -0.002550      -0.002534      -0.003430
  25      -0.005837      -0.000740      -0.000578
  26       0.004980      -0.000192       0.002283
  27      -0.002093      -0.001783      -0.009684
  28       0.005858      -0.000579       0.002364
  29      -0.009173       0.000592      -0.003560
  30      -0.005405       0.002019      -0.002217
  31      -0.001264       0.002830       0.003970
  32       0.005402       0.002370       0.000847
  33      -0.006729      -0.013477      -0.007813
  34       0.008690      -0.001299      -0.004499
  35      -0.004147       0.003804       0.001050
  36       0.024968       0.032468       0.024571
  37      -0.003965       0.010976       0.013258
  38      -0.069411       0.030767       0.000508
  39      -0.016637      -0.093518      -0.038641
  40       0.079121      -0.011206       0.029324
  41       0.001093      -0.004769       0.001640
  42       0.000721       0.000792      -0.011461
  43      -0.005092       0.000119       0.002615
  44       0.006059       0.008310      -0.002466
  45       0.005935       0.007603       0.001769
  46       0.002830      -0.013181       0.021737
  47      -0.011944      -0.003186      -0.013522
  48       0.007796       0.009722       0.002531
  49       0.002336      -0.003218       0.010695
  50      -0.000061      -0.005011      -0.002361
  51       0.000732      -0.004072       0.000785
  52      -0.009777       0.000338      -0.010190
  53       0.004323      -0.001763       0.003829
  54      -0.004199      -0.000427      -0.003709
  55       0.003380       0.003039       0.001094
  56      -0.005014       0.006267       0.001055
  57      -0.002719       0.000583      -0.004106
  58       0.002285       0.001506       0.004509
  59      -0.001110       0.004837      -0.000405
  60      -0.002867      -0.001456      -0.003889
  61      -0.018981      -0.018125      -0.005897
  62      -0.000981      -0.005297      -0.018150
  63       0.021114       0.014085       0.027283
  64       0.012984       0.010217       0.004160
  65      -0.006879      -0.013539      -0.013344
  66       0.008099      -0.003485      -0.009850
  67       0.009221       0.031500       0.036472
  68      -0.036034      -0.018649      -0.010718
  69      -0.004914      -0.004902      -0.003640
  70       0.052882       0.019463      -0.022420
  71      -0.034090      -0.054092      -0.053074
  72       0.030301       0.000494       0.046075
  73       0.004442      -0.002820       0.007819
  74      -0.043060       0.026124       0.001971
  75       0.001913       0.003960       0.003376
  76       0.017829       0.009980      -0.046169
  77      -0.015400       0.027376       0.017877
  78       0.007295       0.003931       0.003759
  79      -0.001583      -0.018761      -0.005997
  80      -0.015671       0.013677      -0.008684
  81      -0.000204       0.001135       0.012403
  82       0.007817      -0.013035      -0.010871
  83      -0.008392      -0.000644      -0.002441
  84      -0.000244      -0.001459       0.006961
  85       0.001614      -0.003954       0.002168
  86      -0.002204       0.001328       0.000933
  87       0.005259       0.004372       0.003962
  88       0.002052       0.008231       0.000532
  89       0.001188       0.005923       0.004633
  90       0.000442      -0.002170      -0.006030
  91       0.015444       0.002166      -0.006812
  92      -0.006105       0.000040       0.002610
---------------------------------------------------
 Number of fixed atoms: 0
 Gradient time:  CPU 36136.13 s  wall 1938.59 s

 *****************************************************
             Starting BFGS Algorithm
 *****************************************************
            LIBOPT3 RUN PARAMETERS

  Geometry Optimization Coordinates :
	Delocalized Natural Internal Coordinates

  Step Length Selection Method :
	Eigenvector Following Algorithm

  Convergence Criteria :
	Max Gradient Component    	3.00000000e-04
	Max Displacement Component	1.20000000e-03
	Absolute Energy Difference	1.00000000e-06

  Initial Hessian :
	Approximate Hessian - Simple Internal Coordinate Scaled

  Type of Verification :
	Verify with final updated Hessian
 *****************************************************

	OPTIMIZATION CYCLE:	1

 Scaling Magnitude of Eigenvalues
 	Minimum: -25.00000000	 Maximum: 25.00000000
 270 Hessian Eigenvalues to form next step
   0.10000000   0.10000000   0.10000000   0.10000000   0.10000000
   0.10000000   0.10000000   0.10000000   0.10000000   0.10000000
   0.10000000   0.10000000   0.10000000   0.10000000   0.10000004
   0.10000012   0.10000023   0.10000089   0.10000125   0.10000152
   0.10000208   0.10000400   0.10001135   0.10001285   0.10001631
   0.10001931   0.10002036   0.10004404   0.10004939   0.10006368
   0.10007506   0.10007618   0.10009148   0.10009793   0.10013678
   0.10018288   0.10018406   0.10023892   0.10025012   0.10033803
   0.10037752   0.10045675   0.10050974   0.10057005   0.10091897
   0.10121553   0.10391720   0.10457918   0.10553193   0.10755223
   0.10805346   0.10883742   0.11131048   0.11221442   0.11259018
   0.11476054   0.11619127   0.11826710   0.11970175   0.12030409
   0.12099135   0.12129399   0.12164397   0.12237253   0.12389705
   0.12397975   0.12467689   0.12548523   0.12625678   0.12662102
   0.12696535   0.12719688   0.12753672   0.12847735   0.12914926
   0.12937765   0.12976964   0.13040822   0.13084890   0.13210927
   0.13287282   0.13452532   0.13494356   0.13811964   0.13964891
   0.14108746   0.14310559   0.14530418   0.14760114   0.14792194
   0.14875298   0.15014500   0.15046590   0.15088834   0.15102603
   0.15189276   0.15253963   0.15346131   0.15396120   0.15425750
   0.15495466   0.15627728   0.15821684   0.15906075   0.16047026
   0.16494241   0.16495919   0.17024548   0.17199110   0.17229200
   0.17393973   0.17572989   0.17590870   0.17675017   0.17692024
   0.17795149   0.17843528   0.17876741   0.17913645   0.17977874
   0.18028259   0.18120852   0.18221928   0.18398091   0.18529875
   0.18804630   0.19299442   0.19547015   0.19708588   0.19768391
   0.19833323   0.19860795   0.19875212   0.19916246   0.19930659
   0.19937144   0.19943467   0.19956471   0.19959503   0.19960316
   0.19960927   0.19963939   0.19980338   0.19986551   0.19987500
   0.19991316   0.19992229   0.19993400   0.19995632   0.19997815
   0.19999188   0.19999471   0.19999592   0.19999964   0.20000000
   0.20000000   0.20000000   0.20000000   0.20000000   0.20000000
   0.20000000   0.20000000   0.20000000   0.20259071   0.20316604
   0.20812728   0.21555132   0.22233670   0.22541163   0.25825298
   0.28752586   0.29754439   0.39608620   0.40073593   0.40807529
   0.41389609   0.43730561   0.44708497   0.45352189   0.45903037
   0.46570523   0.46739209   0.46816905   0.47547461   0.48827458
   0.48866184   0.49040611   0.49201506   0.49321187   0.49623302
   0.49845948   0.49904908   0.49920517   0.49945726   0.49978124
   0.49999739   0.50000000   0.50000000   0.50000000   0.50000000
   0.50000000   0.50000000   0.50000000   0.50000000   0.50000000
   0.50000000   0.50000000   0.50000000   0.50000000   0.50000000
[...]
  14       0.000008      -0.000000      -0.000026
  15      -0.000011      -0.000007       0.000002
  16      -0.000033      -0.000063      -0.000034
  17      -0.000005      -0.000000      -0.000015
  18       0.000006       0.000009      -0.000005
  19       0.000036      -0.000039       0.000005
  20      -0.000004       0.000013      -0.000002
  21      -0.000002      -0.000004      -0.000003
  22      -0.000018      -0.000011      -0.000012
  23       0.000001       0.000008      -0.000007
  24       0.000038       0.000007      -0.000008
  25       0.000014      -0.000021       0.000005
  26      -0.000017      -0.000023       0.000015
  27       0.000027      -0.000042       0.000004
  28      -0.000010      -0.000006      -0.000010
  29      -0.000004      -0.000000       0.000005
  30      -0.000052       0.000009       0.000004
  31       0.000028      -0.000025       0.000019
  32      -0.000000      -0.000002       0.000017
  33      -0.000024      -0.000068       0.000016
  34       0.000001       0.000021       0.000012
  35       0.000026       0.000003       0.000010
  36      -0.000003       0.000035      -0.000030
  37       0.000007      -0.000002      -0.000011
  38       0.000015      -0.000016       0.000018
  39      -0.000007      -0.000010       0.000048
  40       0.000023      -0.000021       0.000008
  41      -0.000021      -0.000000       0.000006
  42       0.000121       0.000056       0.000001
  43       0.000003      -0.000020       0.000013
  44       0.000012      -0.000012      -0.000017
  45      -0.000170       0.000015       0.000066
  46       0.000025       0.000011      -0.000001
  47       0.000044      -0.000015      -0.000056
  48       0.000087      -0.000069       0.000030
  49       0.000054       0.000018      -0.000025
  50      -0.000119       0.000090      -0.000072
  51      -0.000036       0.000022       0.000003
  52       0.000010       0.000034       0.000025
  53       0.000059      -0.000028       0.000043
  54       0.000001      -0.000003       0.000027
  55       0.000019       0.000022       0.000028
  56      -0.000018       0.000064       0.000054
  57      -0.000003       0.000005      -0.000003
  58      -0.000019       0.000019       0.000001
  59      -0.000010      -0.000008      -0.000006
  60       0.000010       0.000007      -0.000000
  61      -0.000022      -0.000053       0.000007
  62       0.000050      -0.000008      -0.000043
  63      -0.000007       0.000016      -0.000010
  64       0.000012       0.000018       0.000009
  65      -0.000064      -0.000017       0.000066
  66      -0.000014      -0.000062       0.000039
  67       0.000074       0.000010       0.000034
  68      -0.000046      -0.000032      -0.000084
  69       0.000013      -0.000002      -0.000000
  70      -0.000011       0.000061      -0.000031
  71      -0.000052       0.000042       0.000109
  72      -0.000045      -0.000056      -0.000035
  73      -0.000026       0.000001      -0.000015
  74      -0.000023       0.000003       0.000028
  75       0.000005       0.000020      -0.000035
  76       0.000029       0.000062      -0.000017
  77       0.000035      -0.000059       0.000093
  78       0.000010      -0.000016      -0.000060
  79      -0.000018       0.000008      -0.000007
  80      -0.000001       0.000021      -0.000012
  81       0.000003      -0.000013      -0.000001
  82       0.000022      -0.000080       0.000031
  83       0.000011       0.000037      -0.000020
  84       0.000009       0.000015      -0.000012
  85      -0.000090      -0.000012      -0.000022
  86       0.000012       0.000014       0.000003
  87       0.000031       0.000004      -0.000015
  88       0.000044       0.000060       0.000100
  89      -0.000002      -0.000014      -0.000007
  90      -0.000006      -0.000022      -0.000008
  91      -0.000012       0.000010      -0.000009
  92      -0.000001       0.000010      -0.000009
---------------------------------------------------
 Number of fixed atoms: 0
 Gradient time:  CPU 30822.44 s  wall 1659.35 s

     Step 40	:
        Energy is -3553.5993001338
                            Maximum         Tolerance       Converged?
         Gradient           8.24089879e-05	3.00000000e-04	true
         Displacement       2.88997600e-03	1.20000000e-03	false
         Energy change      7.96560926e-07	1.00000000e-06	true

	 Optimization Converged in 40 cycles

 *****************************************************
             End of BFGS Algorithm
 *****************************************************
		----------------------------------
		   Verification of Optimization
		----------------------------------

 Eigenvalues of Hessian in Optimization Verification
   0.00147686   0.00428890   0.00508969   0.00789786   0.01180050
   0.02051024   0.02559355   0.03794905   0.06061769   0.07851432
   0.09970024   0.10000087   0.10000141   0.10000174   0.10000410
   0.10000520   0.10000884   0.10001041   0.10001099   0.10001622
   0.10001752   0.10002161   0.10002547   0.10002924   0.10003640
   0.10004403   0.10005370   0.10006246   0.10006930   0.10009002
   0.10009822   0.10010240   0.10011981   0.10015407   0.10017824
   0.10019539   0.10024407   0.10032248   0.10032643   0.10039630
   0.10046101   0.10058001   0.10062106   0.10078603   0.10098608
   0.10166851   0.10314395   0.10345872   0.10400243   0.10465221
   0.10649827   0.10758670   0.10792138   0.10878142   0.11132496
   0.11205319   0.11359709   0.11638613   0.11694024   0.11808768
   0.11911087   0.12070856   0.12158649   0.12179632   0.12267270
   0.12358789   0.12411766   0.12476137   0.12565599   0.12601866
   0.12667633   0.12681065   0.12757640   0.12839602   0.12934032
   0.12952940   0.12958287   0.13030131   0.13095383   0.13186683
   0.13325183   0.13395309   0.13568263   0.13713511   0.14037660
   0.14074745   0.14279245   0.14393244   0.14721039   0.14775936
   0.14862754   0.14926404   0.15006703   0.15087516   0.15113644
   0.15216782   0.15295799   0.15331456   0.15406899   0.15425206
   0.15486616   0.15655736   0.15826434   0.15912804   0.16060026
   0.16367030   0.16536293   0.16929638   0.17201456   0.17229399
   0.17351514   0.17432292   0.17567974   0.17602413   0.17667123
   0.17703878   0.17864125   0.17883438   0.17947887   0.17977681
   0.18037840   0.18151506   0.18347001   0.18446748   0.18570852
   0.18836027   0.19187564   0.19606542   0.19679122   0.19769603
   0.19827489   0.19858441   0.19888333   0.19908102   0.19923799
   0.19931868   0.19944187   0.19952430   0.19958438   0.19965110
   0.19971984   0.19976788   0.19981040   0.19984247   0.19986272
   0.19990283   0.19995515   0.19996709   0.20003666   0.20004233
   0.20013929   0.20047746   0.20090231   0.20140492   0.20228932
   0.20250603   0.20304363   0.20429849   0.20855508   0.21158618
   0.21556084   0.21897558   0.21917434   0.22590652   0.22880206
   0.24118384   0.24431940   0.25545165   0.27355637   0.28232474
   0.28302641   0.29526637   0.36175973   0.37312684   0.39717110
   0.40509541   0.41240016   0.42214031   0.43864976   0.44518226
   0.44987803   0.45347449   0.46006674   0.46700158   0.47179405
   0.47704231   0.48094508   0.48587519   0.48801875   0.48979272
   0.49195994   0.49273260   0.49324203   0.49441329   0.49630093
   0.49728128   0.49904201   0.49923266   0.49946375   0.49965986
   0.49976146   0.49987771   0.49990511   0.49993314   0.49997470
   0.49998758   0.49999938   0.50000000   0.50000000   0.50000000
   0.50000000   0.50000000   0.50000000   0.50000000   0.50000000
   0.50000000   0.50000000   0.50000000   0.50000000   0.50000000
   0.50000000   0.50000000   0.50000000   0.50000000   0.50000000
   0.50000000   0.50000000   0.50000000   0.50000000   0.50000000
   0.50000000   0.50000000   0.50000000   0.50000000   0.50000002
   0.50000006   0.50000015   0.50000038   0.50000044   0.50000074
   0.50000082   0.50000279   0.50000461   0.50000510   0.50001540
   0.50002406   0.50002729   0.50004141   0.50008217   0.50018333
   0.50033304   0.50049835   0.50062130   0.50076048   0.50124856
   0.50145885   0.50293880   0.50388884   0.50453864   0.50810551
   0.50970654   0.51098668   0.51437492   0.51829198   0.52099426
   0.53135860   0.55341380   0.56925704   0.59323788   0.67466335


 Found a minimum
		---------------------------------
		       End of Verification
		---------------------------------

 Final energy is -3553.599300133787

	******************************
	**  OPTIMIZATION CONVERGED  **
	******************************
 Adding empirical dispersion correction 
 ----------------------------------------------------------------
 Doing -D3(BJ) with
 s6  =   1.00000
 s8  =   1.98890
 a1  =   0.39810
 a2  =   4.42110
 -D3 energy without 3body term =     -0.2238899019 hartrees
 ----------------------------------------------------------------
             Standard Nuclear Orientation (Angstroms)
    I     Atom           X                Y                Z
 ----------------------------------------------------------------
    1      C       3.1636631851    -1.4843723088    -1.3131579910
    2      C       4.4975791227    -1.8611548412    -1.1718231070
    3      C       5.3908478767    -1.8313608312    -2.2710095747
    4      C       4.9050336158    -1.4382075063    -3.5284784523
    5      C       3.5649381948    -1.0700639364    -3.6971866407
    6      C       2.6802943567    -1.0528871965    -2.6007518656
    7      H       4.8368524728    -2.1036430437    -0.1630256902
    8      O       1.4292083940    -0.6330362883    -2.6486288280
    9      C       6.8531577127    -2.0124749828    -2.0787976729
   10      O       7.6910582330    -1.5679470704    -2.8793147008
   11      N       7.2421659252    -2.6659944640    -0.9308089087
   12      H       6.4815921022    -2.9895044433    -0.3438701157
   13      C       8.4248878142    -2.2478227927    -0.1811095919
   14      H       8.9021750128    -3.1309176520     0.2715435616
   15      H       9.1331993175    -1.8157220895    -0.9026966926
   16      C       8.0402983508    -1.2288641942     0.9032445865
   17      H       8.8814308653    -1.1017679631     1.6071855483
   18      H       7.2000201140    -1.6462170403     1.4858616209
   19      C       7.6406062981     0.1401719423     0.3244879160
   20      H       7.0465206202    -0.0004255770    -0.5921593540
   21      H       8.5579856653     0.6739571190     0.0185882463
   22      N       6.8600627980     1.0128564985     1.2016026454
   23      H       7.2908894351     1.0416000266     2.1290206886
   24      C       4.6601238749     1.7008108382     2.1088908465
   25      H       3.6088599539     1.3716135837     2.1842237443
   26      H       5.0445864699     1.7458973151     3.1439129835
   27      C       5.4505019882     0.6390668054     1.3347236281
   28      H       5.2975752699    -0.3481238383     1.8207255684
   29      H       5.0392578582     0.5344139433     0.3167634948
   30      C       4.7367565838     3.0998743191     1.4849838262
   31      H       4.3668355980     3.8546958891     2.1999719517
   32      H       5.7954619711     3.3308792686     1.2883741119
   33      C       3.9647177204     3.2550340284     0.1690478666
   34      H       4.1308451500     2.3893994662    -0.4850110723
   35      H       4.3309880577     4.1482449807    -0.3634164361
   36      N       2.5253455880     3.3991609597     0.3466468521
   37      H       2.1876033018     4.3164935408     0.6165927958
   38      C       1.5908154643     2.5062536223    -0.0793055055
   39      O       1.9746518316     1.3681307541    -0.4986829848
   40      C       0.2134235072     2.9226124887    -0.0206932742
   41      H      -0.0256611832     3.8642063568     0.4752248992
   42      C      -2.2494334912     2.6479108531    -0.3935785194
   43      H      -2.6301985344     2.0556645872     0.4564451206
   44      H      -2.2951705042     3.7121123436    -0.1311634031
   45      C      -3.1304354422     2.4074878530    -1.6092569868
   46      O      -3.4026978464     3.3138808068    -2.4065238716
   47      N      -3.5787678698     1.1363851887    -1.7416469655
   48      C      -4.2853263524     0.6575370812    -2.9209234543
   49      H      -3.2177284375     0.4367416476    -1.0967851828
   50      C      -5.7101924457     0.1926139744    -2.6135922783
   51      H      -3.7090888851    -0.1722115803    -3.3641628903
   52      H      -4.2963872220     1.4877445080    -3.6414960840
   53      C      -6.6264313706     1.3112649991    -2.1175692556
   54      H      -6.1332537788    -0.2473585953    -3.5354161158
   55      H      -5.6705236640    -0.6174990203    -1.8672085418
   56      C      -8.0372046045     0.8141141899    -1.7592847734
   57      H      -6.7114329260     2.0902591879    -2.8972130825
   58      H      -6.1671417832     1.8007451875    -1.2414648074
   59      H      -8.6894784637     1.6842645966    -1.5649791548
   60      H      -8.4601425716     0.2947729240    -2.6384392837
   61      C      -5.3850163640    -1.7789975101     0.9012641442
   62      C      -3.9581042195    -1.3936268492     1.0500883841
   63      O      -5.8503179855    -2.1759709023    -0.1878950290
   64      C      -3.4805517164    -0.6402469483     2.1354648838
   65      C      -3.0584164967    -1.7512639688     0.0143447198
   66      C      -2.1369620506    -0.2513337299     2.1998046703
   67      C      -1.7152953022    -1.3700890773     0.0537450793
   68      C      -1.2364942505    -0.5944994296     1.1764770310
   69      H      -1.7758517802     0.3582708212     3.0325003448
   70      O      -0.8264446649    -1.6422427166    -0.8964931974
   71      C      -0.8055338657     2.1955454203    -0.6108914621
   72      O      -0.6575756087     1.1192270080    -1.3057590142
   73      H       3.1936394318    -0.7503593471    -4.6752750091
   74      O       2.2958209410    -1.4444499659    -0.3079058703
   75      H      -3.4303796337    -2.3214129583    -0.8391500495
   76      O       0.0282849408    -0.2253669832     1.1474867185
   77      Fe      0.7022205435    -0.3438249656    -0.7740998020
   78      N      -8.1537492220    -0.0906538345    -0.6123976995
   79      H      -7.5492619928    -0.9040962296    -0.7586151021
   80      N      -6.1776184014    -1.6823043135     2.0052965125
   81      H      -5.7633612949    -1.3434016218     2.8647090190
   82      C      -7.6299696455    -1.7210422745     1.9388692602
   83      H      -7.8989354616    -2.3227722606     1.0606838493
   84      H      -8.0095546532    -2.2438270013     2.8301728604
   85      C      -8.2610643192    -0.3229303293     1.8538071941
   86      H      -9.3565748703    -0.4453816462     1.7960962955
   87      H      -8.0406810786     0.2265889670     2.7861238045
   88      C      -7.7868200798     0.5184165641     0.6666894760
   89      H      -8.2749793079     1.5068014025     0.7231408544
   90      H      -6.6976865725     0.7078070442     0.7677221817
   91      H      -4.1525059388    -0.3044749121     2.9283021113
   92      H       5.5995769248    -1.3966404714    -4.3693348529
 ----------------------------------------------------------------
 Nuclear Repulsion Energy =        7439.80119639 hartrees
 There are      194 alpha and      189 beta electrons

Z-matrix Print:
$molecule
-2 6
Fe
O  1 1.992053
C  2 1.328637 1 111.227257
C  3 1.393296 2 123.829358 1 162.247601 0
H  4 1.091595 3 116.832068 2 -1.976446 0
C  4 1.416696 3 121.283008 2 -177.349532 0
C  6 1.404213 4 118.851636 3 -1.277884 0
H  7 1.091402 6 118.712898 4 178.778998 0
C  7 1.399946 6 120.845304 4 0.533614 0
H  9 1.093952 7 120.630483 6 179.102162 0
C  9 1.408921 7 120.694986 6 1.632725 0
O  11 1.320524 9 124.787348 7 175.120889 0
C  6 1.485967 4 121.169182 3 169.703323 0
O  13 1.241173 6 122.497307 4 -155.282528 0
N  13 1.377060 6 116.338365 4 22.527824 0
H  15 1.013720 13 114.972582 6 2.106217 0
C  15 1.461420 13 121.364630 6 -141.271256 0
H  17 1.099593 15 107.284427 13 -29.978570 0
H  17 1.101161 15 109.401270 13 -146.659147 0
C  17 1.536883 15 110.434653 13 91.513222 0
H  20 1.104169 17 109.602939 15 166.776923 0
H  20 1.104397 17 108.183115 15 50.839266 0
C  20 1.539147 17 112.917433 15 -70.754046 0
H  23 1.101339 20 109.846051 17 39.439408 0
H  23 1.104575 20 108.560167 17 -76.301370 0
N  23 1.462927 20 116.340653 17 160.745098 0
H  26 1.023006 23 109.609170 20 47.145688 0
C  26 1.464343 23 114.571087 20 -76.101741 0
H  28 1.102868 26 107.412492 23 -51.896326 0
H  28 1.110914 26 113.522639 23 64.399396 0
C  28 1.533406 26 111.426553 23 -172.247493 0
H  31 1.104175 28 108.587426 26 -179.821969 0
H  31 1.105041 28 108.771723 26 -64.623564 0
C  31 1.533790 28 113.607456 26 57.028861 0
H  34 1.101306 31 108.178602 28 -49.505201 0
H  34 1.103542 31 110.097483 28 -166.258583 0
C  34 1.533560 31 114.594056 28 71.065997 0
H  37 1.097595 34 110.814763 31 -43.421627 0
H  37 1.102496 34 109.217046 31 -161.675956 0
N  37 1.457431 34 113.742794 31 77.772682 0
H  40 1.014120 37 116.795203 34 79.368817 0
C  40 1.360906 37 125.111117 34 -114.988179 0
O  42 1.272215 40 118.878381 37 10.471483 0
C  42 1.440138 40 117.023149 37 -169.620755 0
H  44 1.090732 42 118.537281 40 -7.859213 0
C  44 1.383920 42 122.341039 40 169.793217 0
O  46 1.289649 44 125.716401 42 -2.648528 0
C  46 1.528629 44 118.644490 42 174.708035 0
H  48 1.097032 46 111.128412 44 22.960760 0
H  48 1.103756 46 106.054105 44 -95.094799 0
C  48 1.520474 46 112.758753 44 145.285091 0
O  51 1.237461 48 121.788694 46 -99.487455 0
N  51 1.354338 48 114.731882 46 80.322140 0
H  53 1.017692 51 117.765212 48 -6.596727 0
C  53 1.455752 51 123.269417 48 -171.682777 0
H  55 1.099360 53 106.705082 51 3.808783 0
H  55 1.103174 53 108.624389 51 120.077640 0
C  55 1.529983 53 112.907368 51 -117.895213 0
H  58 1.102246 55 109.016555 53 -58.803360 0
H  58 1.105584 55 108.047871 53 -174.292536 0
C  58 1.528696 55 113.640266 53 64.088926 0
H  61 1.103674 58 109.432044 55 -54.938151 0
H  61 1.105397 58 109.446449 55 61.081798 0
C  61 1.538118 58 112.879663 55 -177.645860 0
H  64 1.104707 61 109.143982 58 -171.084183 0
H  64 1.105217 61 108.516692 58 -55.400415 0
N  64 1.465448 61 117.052127 58 66.512963 0
H  67 1.023950 64 109.376093 61 -56.078511 0
C  67 1.463444 64 114.024854 61 64.821956 0
H  69 1.103807 67 107.847479 64 46.139272 0
H  69 1.110085 67 113.362780 64 -70.956774 0
C  69 1.530366 67 111.807062 64 165.210336 0
H  72 1.103842 69 109.146318 67 -58.172525 0
H  72 1.104425 69 108.629361 67 -174.866569 0
C  72 1.536305 69 114.580200 67 63.108017 0
H  75 1.098012 72 110.720785 69 -62.678553 0
H  75 1.100823 72 109.594897 69 178.743049 0
N  75 1.454386 72 112.861337 69 57.496312 0
H  78 1.012449 75 117.147106 72 71.009906 0
C  78 1.362518 75 122.820288 72 -93.562088 0
O  80 1.249144 78 120.822154 75 -14.726672 0
C  80 1.485509 78 117.334480 75 165.213203 0
C  82 1.404877 80 122.890325 78 -16.378746 0
H  83 1.092180 82 121.101742 80 0.157942 0
C  83 1.400224 82 120.705297 80 -177.119678 0
H  85 1.093344 83 120.449594 82 178.306938 0
C  85 1.405633 83 120.893371 82 0.545895 0
O  87 1.317864 85 124.224834 83 177.602144 0
C  82 1.417783 80 118.093739 78 166.731151 0
H  89 1.091732 82 119.120702 80 -1.902600 0
C  89 1.396718 82 121.384182 80 176.998536 0
O  91 1.329314 89 124.538311 82 -178.276399 0
$end

 -----------------------------------------------------------------------
                  END OF GEOMETRY OPTIMIZER USING LIBOPT3               
 -----------------------------------------------------------------------
 Total job time:  177973.40s(wall), 2839345.40s(cpu) 
 Fri Jan 26 13:11:45 2024

        *************************************************************
        *                                                           *
        *  Thank you very much for using Q-Chem.  Have a nice day.  *
        *                                                           *
        *************************************************************


