
Running Job 1 of 1 C_FePBstar_enol_ctL_S_2sextet_camb3lyo_augccpVDZ_pcmH2O_tddft100_2.in
qchem C_FePBstar_enol_ctL_S_2sextet_camb3lyo_augccpVDZ_pcmH2O_tddft100_2.in_3027654.0 /data/scratch/C_FePBstar_enol_ctL_S_2sextet_camb3lyo_augccpVDZ_pcmH2O_tddft100_220240524131139/ 0
/opt/qchem/6.0.1/exe/qcprog.exe_s C_FePBstar_enol_ctL_S_2sextet_camb3lyo_augccpVDZ_pcmH2O_tddft100_2.in_3027654.0 /data/scratch/C_FePBstar_enol_ctL_S_2sextet_camb3lyo_augccpVDZ_pcmH2O_tddft100_220240524131139/
                  Welcome to Q-Chem
     A Quantum Leap Into The Future Of Chemistry


 Q-Chem 6.0, Q-Chem, Inc., Pleasanton, CA (2022)

 E. Epifanovsky,  A. T. B. Gilbert,  Xintian Feng,  Joonho Lee,  Yuezhi Mao,  
 N. Mardirossian,  P. Pokhilko,  A. White,  M. Wormit,  M. P. Coons,  
 A. L. Dempwolff,  Zhengting Gan,  D. Hait,  P. R. Horn,  L. D. Jacobson,  
 I. Kaliman,  J. Kussmann,  A. W. Lange,  Ka Un Lao,  D. S. Levine,  Jie Liu,  
 S. C. McKenzie,  A. F. Morrison,  K. Nanda,  F. Plasser,  D. R. Rehn,  
 M. L. Vidal,  Zhi-Qiang You,  Ying Zhu,  B. Alam,  B. Albrecht,  
 A. Aldossary,  E. Alguire,  J. H. Andersen,  V. Athavale,  D. Barton,  
 K. Begam,  A. Behn,  N. Bellonzi,  Y. A. Bernard,  E. J. Berquist,  
 H. Burton,  A. Carreras,  K. Carter-Fenk,  Romit Chakraborty,  
 Chandrima Chakravarty,  Junhan Chen,  A. D. Chien,  K. D. Closser,  
 V. Cofer-Shabica,  L. Cunha,  S. Dasgupta,  Jia Deng,  M. de Wergifosse,  
 M. Diedenhofen,  Hainam Do,  S. Ehlert,  Po-Tung Fang,  S. Fatehi,  
 Qingguo Feng,  T. Friedhoff,  B. Ganoe,  J. Gayvert,  Qinghui Ge,  
 G. Gidofalvi,  M. Goldey,  J. Gomes,  C. Gonzalez-Espinoza,  S. Gulania,  
 A. Gunina,  J. A. Gyamfi,  M. W. D. Hanson-Heine,  P. H. P. Harbach,  
 A. W. Hauser,  M. F. Herbst,  M. Hernandez Vera,  M. Hodecker,  
 Z. C. Holden,  S. Houck,  Xunkun Huang,  Kerwin Hui,  B. C. Huynh,  
 K. Ikeda,  M. Ivanov,  Hyunjun Ji,  Zuxin Jin,  Hanjie Jiang,  B. Kaduk,  
 S. Kaehler,  R. Kang,  K. Khistyaev,  Jaehoon Kim,  Yongbin Kim,  
 P. Klunzinger,  Z. Koczor-Benda,  Joong Hoon Koh,  D. Kosenkov,  
 Saikiran Kotaru,  L. Koulias,  T. Kowalczyk,  C. M. Krauter,  K. Kue,  
 A. Kunitsa,  T. Kus,  A. Landau,  K. V. Lawler,  D. Lefrancois,  S. Lehtola,  
 Rain Li,  Shaozhi Li,  Yi-Pei Li,  Jiashu Liang,  M. Liebenthal,  
 Hung-Hsuan Lin,  You-Sheng Lin,  Fenglai Liu,  Kuan-Yu Liu,  
 M. Loipersberger,  A. Luenser,  C. Malbon,  A. Manjanath,  P. Manohar,  
 E. Mansoor,  S. F. Manzer,  Shan-Ping Mao,  A. V. Marenich,  T. Markovich,  
 S. Mason,  F. Matz,  S. A. Maurer,  P. F. McLaughlin,  M. F. S. J. Menger,  
 J.-M. Mewes,  S. A. Mewes,  P. Morgante,  Mohammad Mostafanejad,  
 J. W. Mullinax,  K. J. Oosterbaan,  G. Paran,  V. Parravicini,  
 Alexander C. Paul,  Suranjan K. Paul,  F. Pavosevic,  Zheng Pei,  S. Prager,  
 E. I. Proynov,  E. Ramos,  B. Rana,  A. E. Rask,  A. Rettig,  R. M. Richard,  
 F. Rob,  E. Rossomme,  T. Scheele,  M. Scheurer,  M. Schneider,  
 P. E. Schneider,  N. Sergueev,  S. M. Sharada,  Hengyuan Shen,  
 W. Skomorowski,  D. W. Small,  C. J. Stein,  Yingli Su,  Yu-Chuan Su,  
 E. J. Sundstrom,  Zhen Tao,  J. Thirman,  Hung-Yi Tsai,  T. Tsuchimochi,  
 N. M. Tubman,  C. Utku,  S. P. Veccham,  O. Vydrov,  J. Wenzel,  
 Jonathan Wong,  J. Witte,  A. Yamada,  Chou-Hsun Yang,  Kun Yao,  
 S. Yeganeh,  S. R. Yost,  A. Zech,  F. Zeller,  Igor Ying Zhang,  
 Xing Zhang,  Yu Zhang,  D. Zuev,  A. Aspuru-Guzik,  A. T. Bell,  
 N. A. Besley,  K. B. Bravaya,  B. R. Brooks,  D. Casanova,  Jeng-Da Chai,  
 Hsing-Ta Chen,  S. Coriani,  C. J. Cramer,  A. E. DePrince, III,  
 R. A. DiStasio Jr.,  A. Dreuw,  B. D. Dunietz,  T. R. Furlani,  
 W. A. Goddard III,  S. Grimme,  S. Hammes-Schiffer,  T. Head-Gordon,  
 W. J. Hehre,  Chao-Ping Hsu,  T.-C. Jagau,  Yousung Jung,  A. Klamt,  
 Jing Kong,  D. S. Lambrecht,  Xiangyuan Li,  WanZhen Liang,  N. J. Mayhall,  
 C. W. McCurdy,  J. B. Neaton,  T. Neudecker,  C. Ochsenfeld,  
 J. A. Parkhill,  R. Peverati,  V. A. Rassolov,  Haisheng Ren,  Yihan Shao,  
 L. V. Slipchenko,  R. P. Steele,  J. E. Subotnik,  A. J. W. Thom,  
 A. Tkatchenko,  D. G. Truhlar,  T. Van Voorhis,  Fan Wang,  
 T. A. Wesolowski,  K. B. Whaley,  H. L. Woodcock III,  P. M. Zimmerman,  
 S. Faraji,  P. M. W. Gill,  M. Head-Gordon,  J. M. Herbert,  A. I. Krylov

 Contributors to earlier versions of Q-Chem not listed above: 
 R. D. Adamson,  B. Austin,  R. Baer,  J. Baker,  G. J. O. Beran,  
 K. Brandhorst,  S. T. Brown,  E. F. C. Byrd,  Arup K. Chakraborty,  
 G. K. L. Chan,  Chun-Min Chang,  Yunqing Chen,  C.-L. Cheng,  
 Siu Hung Chien,  D. M. Chipman,  D. L. Crittenden,  H. Dachsel,  
 R. J. Doerksen,  A. D. Dutoi,  R. G. Edgar,  J. Fosso-Tande,  
 L. Fusti-Molnar,  D. Ghosh,  A. Ghysels,  A. Golubeva-Zadorozhnaya,  
 J. Gonthier,  M. S. Gordon,  S. R. Gwaltney,  G. Hawkins,  J. E. Herr,  
 A. Heyden,  S. Hirata,  E. G. Hohenstein,  G. Kedziora,  F. J. Keil,  
 C. Kelley,  Jihan Kim,  R. A. King,  R. Z. Khaliullin,  P. P. Korambath,  
 W. Kurlancheek,  A. Laurent,  A. M. Lee,  M. S. Lee,  S. V. Levchenko,  
 Ching Yeh Lin,  D. Liotard,  E. Livshits,  R. C. Lochan,  I. Lotan,  
 L. A. Martinez-Martinez,  P. E. Maslen,  N. Nair,  D. P. O'Neill,  
 D. Neuhauser,  E. Neuscamman,  C. M. Oana,  R. Olivares-Amaya,  R. Olson,  
 T. M. Perrine,  B. Peters,  P. A. Pieniazek,  A. Prociuk,  Y. M. Rhee,  
 J. Ritchie,  M. A. Rohrdanz,  E. Rosta,  N. J. Russ,  H. F. Schaefer III,  
 M. W. Schmidt,  N. E. Schultz,  S. Sharma,  N. Shenvi,  C. D. Sherrill,  
 A. C. Simmonett,  A. Sodt,  T. Stein,  D. Stuck,  K. S. Thanthiriwatte,  
 V. Vanovschi,  L. Vogt,  Tao Wang,  A. Warshel,  M. A. Watson,  
 C. F. Williams,  Q. Wu,  X. Xu,  Jun Yang,  W. Zhang,  Yan Zhao

   Please cite Q-Chem as follows:
  "Software for the frontiers of quantum chemistry:
   An overview of developments in the Q-Chem 5 package"
   J. Chem. Phys. 155, 084801 (2021)
   https://doi.org/10.1063/5.0055522 (open access)

 Q-Chem 6.0.2 for Intel X86 EM64T Linux

 Parts of Q-Chem use Armadillo 9.900.5 (Nocturnal Misbehaviour).
 http://arma.sourceforge.net/

 Q-Chem begins on Fri May 24 13:13:04 2024  

 Host: 
0

     Scratch files written to /data/scratch/C_FePBstar_enol_ctL_S_2sextet_camb3lyo_augccpVDZ_pcmH2O_tddft100_220240524131139//
 Dec722 |scratch|qcdevops|jenkins|workspace|build_RNUM 8907   
 Processing $rem in /opt/qchem/6.0.1/config/preferences:
 Processing $rem in /home/sgardner/.qchemrc:
 Symmetry turned off for PCM/SM12/SMD calculation

 Checking the input file for inconsistencies... 	...done.

--------------------------------------------------------------
User input:
--------------------------------------------------------------
$molecule
-2 6
C    2.9849263   -1.4088745   -2.0080461
C    4.2031121   -1.1190023   -2.6256704
C    5.3979761   -1.7721770   -2.2299254
C    5.3358524   -2.7688274   -1.2435268
C    4.1283878   -3.0705049   -0.6038099
C    2.9496606   -2.3820708   -0.9403403
H    4.1973957   -0.3627217   -3.4157647
O    1.8354742   -0.8146533   -2.3050774
C    6.7501163   -1.3365168   -2.6698191
O    7.7747265   -1.9930877   -2.4275872
N    6.8245728   -0.1120782   -3.2993000
H    5.9583530    0.4175168   -3.2975995
C    7.8177370    1.7132626   -1.9604701
H    6.9633750    2.3757464   -2.1894958
H    8.7104393    2.3585236   -1.8823779
C    7.5363858    1.0267831   -0.6228593
H    8.4517776    0.5017456   -0.2688823
H    6.7722544    0.2479853   -0.7681952
N    6.9889282    1.9539621    0.3645914
H    7.6807409    2.6815967    0.5624936
C    5.8807792    2.2222284    2.5640090
H    5.7616744    1.7197201    3.5402641
H    6.5001576    3.1169994    2.7531132
C    6.6436492    1.2884633    1.6215929
H    7.5357926    0.8810714    2.1459297
H    6.0158995    0.4157926    1.3695719
C    4.5097551    2.6597236    2.0365817
H    4.1301705    3.4875364    2.6612146
H    4.6205679    3.0476430    1.0111603
C    3.4725932    1.5334808    2.0391619
H    3.7568152    0.7274575    1.3500674
N    2.1727466    2.0283465    1.6150539
H    1.8708478    2.9232004    1.9850256
C    1.2916279    1.3462242    0.8373006
O    1.6298404    0.1996472    0.3977027
C    0.0244387    1.9709362    0.5730046
H   -0.2592768    2.8332612    1.1784884
C   -2.2589725    2.1231390   -0.4049517
H   -2.8206417    1.5973149    0.3854840
H   -2.2213411    3.1874058   -0.1348148
C   -2.9965621    2.0007431   -1.7275942
O   -2.8893947    2.8594526   -2.6121688
N   -3.7897610    0.9091300   -1.8410772
C   -4.6844249    0.6698050   -2.9636102
H   -3.7930809    0.2291309   -1.0851068
C   -6.1481661    0.6224153   -2.5124949
H   -4.4109598   -0.2808821   -3.4487953
H   -4.5137343    1.4850034   -3.6804575
C   -6.6481481    1.9417823   -1.9184016
H   -6.7747026    0.3354889   -3.3758279
H   -6.2562431   -0.1864908   -1.7724188
C   -7.9630710    1.8076779   -1.1299525
H   -6.7883439    2.6859823   -2.7228636
H   -5.8734391    2.3548650   -1.2514696
H   -8.2945301    2.8179515   -0.8269754
H   -8.7481600    1.4053250   -1.7946481
C   -5.8483295   -1.7733099    0.5525908
C   -4.4220506   -2.4812248   -1.3341350
O   -6.8819681   -1.9138798   -0.1364021
C   -4.4967859   -1.9873325   -0.0224982
C   -3.1946217   -2.5853705   -1.9943387
C   -3.2948716   -1.6405662    0.6510520
C   -2.0043668   -2.1917364   -1.3580197
C   -2.0536210   -1.7612459    0.0214923
H   -3.2961398   -1.2386736    1.6671386
O   -0.8249284   -2.1689772   -1.9440060
C   -0.8505229    1.5272390   -0.4069134
O   -0.6063953    0.6214441   -1.2885250
H    4.0903918   -3.8156055    0.1961070
O    1.7901630   -2.5517662   -0.3332789
H   -3.1455359   -2.9287585   -3.0313292
O   -0.8934362   -1.4533167    0.5885859
Fe    0.4902030   -1.0954218   -0.8419516
N   -7.9324631    0.9648271    0.0695833
H   -7.7696340   -0.0081525   -0.2031831
N   -5.9282770   -1.3899743    1.8579389
H   -5.0651030   -1.2215309    2.3603539
C   -7.1421822   -0.8220690    2.4256656
H   -7.9821554   -1.2130414    1.8376605
H   -7.2573864   -1.1844375    3.4589048
C   -7.1436833    0.7151066    2.4143978
H   -8.1167199    1.0564605    2.8084699
H   -6.3645034    1.0804557    3.1068124
C   -6.9031371    1.3441765    1.0394105
H   -6.9281407    2.4420199    1.1510757
H   -5.8756777    1.0929261    0.7020811
H   -5.3502188   -2.7451900   -1.8405997
H    6.2616386   -3.2610075   -0.9434032
H    3.4084083    1.0921166    3.0528598
C    8.0105664    0.7242202   -3.1217771
H    8.2189479    1.2754754   -4.0519890
H    8.8548057    0.0479016   -2.9320507
$end

$rem
BASIS  =  gen
CIS_N_ROOTS  =  100
EXCHANGE  =  CAM-B3LYP
GUI  =  2
JOB_TYPE  =  SP
SCF_CONVERGENCE  =  8
SOLVENT_METHOD  =  PCM
UNRESTRICTED  =  1
BASIS GEN
PURECART 11
MEM_TOTAL  =  30000
$end

$pcm
THEORY  CPCM
$end

$solvent
DIELECTRIC  78.39
$end

$van_der_waals
26   2.44
$end

!----------------------------------------------------------------------
! Basis Set Exchange
! Basis set: aug-cc-pVDZ
!----------------------------------------------------------------------

$basis
H     0
S   4   1.00
1.301000D+01           1.968500D-02
1.962000D+00           1.379770D-01
4.446000D-01           4.781480D-01
1.220000D-01           5.012400D-01
S   1   1.00
1.220000D-01           1.000000D+00
S   1   1.00
0.0297400              1.0000000
P   1   1.00
7.270000D-01           1.0000000
P   1   1.00
0.1410000              1.0000000
****
C     0
S   9   1.00
6.665000D+03           6.920000D-04
1.000000D+03           5.329000D-03
2.280000D+02           2.707700D-02
6.471000D+01           1.017180D-01
2.106000D+01           2.747400D-01
7.495000D+00           4.485640D-01
2.797000D+00           2.850740D-01
5.215000D-01           1.520400D-02
1.596000D-01          -3.191000D-03
S   9   1.00
6.665000D+03          -1.460000D-04
1.000000D+03          -1.154000D-03
2.280000D+02          -5.725000D-03
6.471000D+01          -2.331200D-02
2.106000D+01          -6.395500D-02
7.495000D+00          -1.499810D-01
2.797000D+00          -1.272620D-01
5.215000D-01           5.445290D-01
1.596000D-01           5.804960D-01
S   1   1.00
1.596000D-01           1.000000D+00
S   1   1.00
0.0469000              1.0000000
P   4   1.00
9.439000D+00           3.810900D-02
2.002000D+00           2.094800D-01
5.456000D-01           5.085570D-01
1.517000D-01           4.688420D-01
P   1   1.00
1.517000D-01           1.000000D+00
P   1   1.00
0.0404100              1.0000000
D   1   1.00
5.500000D-01           1.0000000
D   1   1.00
0.1510000              1.0000000
****
N     0
S   9   1.00
9.046000D+03           7.000000D-04
1.357000D+03           5.389000D-03
3.093000D+02           2.740600D-02
8.773000D+01           1.032070D-01
2.856000D+01           2.787230D-01
1.021000D+01           4.485400D-01
3.838000D+00           2.782380D-01
7.466000D-01           1.544000D-02
2.248000D-01          -2.864000D-03
S   9   1.00
9.046000D+03          -1.530000D-04
1.357000D+03          -1.208000D-03
3.093000D+02          -5.992000D-03
8.773000D+01          -2.454400D-02
2.856000D+01          -6.745900D-02
1.021000D+01          -1.580780D-01
3.838000D+00          -1.218310D-01
7.466000D-01           5.490030D-01
2.248000D-01           5.788150D-01
S   1   1.00
2.248000D-01           1.000000D+00
S   1   1.00
0.0612400              1.0000000
P   4   1.00
1.355000D+01           3.991900D-02
2.917000D+00           2.171690D-01
7.973000D-01           5.103190D-01
2.185000D-01           4.622140D-01
P   1   1.00
2.185000D-01           1.000000D+00
P   1   1.00
0.0561100              1.0000000
D   1   1.00
8.170000D-01           1.0000000
D   1   1.00
0.2300000              1.0000000
****
O     0
S   9   1.00
1.172000D+04           7.100000D-04
1.759000D+03           5.470000D-03
4.008000D+02           2.783700D-02
1.137000D+02           1.048000D-01
3.703000D+01           2.830620D-01
1.327000D+01           4.487190D-01
5.025000D+00           2.709520D-01
1.013000D+00           1.545800D-02
3.023000D-01          -2.585000D-03
S   9   1.00
1.172000D+04          -1.600000D-04
1.759000D+03          -1.263000D-03
4.008000D+02          -6.267000D-03
1.137000D+02          -2.571600D-02
3.703000D+01          -7.092400D-02
1.327000D+01          -1.654110D-01
5.025000D+00          -1.169550D-01
1.013000D+00           5.573680D-01
3.023000D-01           5.727590D-01
S   1   1.00
3.023000D-01           1.000000D+00
S   1   1.00
0.0789600              1.0000000
P   4   1.00
1.770000D+01           4.301800D-02
3.854000D+00           2.289130D-01
1.046000D+00           5.087280D-01
2.753000D-01           4.605310D-01
P   1   1.00
2.753000D-01           1.000000D+00
P   1   1.00
0.0685600              1.0000000
D   1   1.00
1.185000D+00           1.0000000
D   1   1.00
0.3320000              1.0000000
****
Fe     0
S   20   1.00
4.316265D+06           8.048803D-06
6.463424D+05           6.258306D-05
1.470897D+05           3.290239D-04
4.166152D+04           1.387355D-03
1.359077D+04           5.023256D-03
4.905750D+03           1.610140D-02
1.912746D+03           4.590034D-02
7.926043D+02           1.136154D-01
3.448065D+02           2.283869D-01
1.558999D+02           3.221159D-01
7.223091D+01           2.383661D-01
3.272506D+01           7.404667D-02
1.566762D+01           9.214197D-02
7.503483D+00           9.339790D-02
3.312223D+00           1.573965D-02
1.558471D+00          -4.186682D-04
6.839140D-01           5.376318D-05
1.467570D-01          -3.816654D-05
7.058300D-02           4.319603D-05
3.144900D-02          -3.401019D-06
S   20   1.00
4.316265D+06          -4.155954D-06
6.463424D+05          -3.231401D-05
1.470897D+05          -1.699525D-04
4.166152D+04          -7.171369D-04
1.359077D+04          -2.603625D-03
4.905750D+03          -8.399109D-03
1.912746D+03          -2.434109D-02
7.926043D+02          -6.251948D-02
3.448065D+02          -1.365929D-01
1.558999D+02          -2.312707D-01
7.223091D+01          -2.383734D-01
3.272506D+01           3.123837D-02
1.566762D+01           5.086818D-01
7.503483D+00           4.987695D-01
3.312223D+00           9.033552D-02
1.558471D+00          -6.005337D-03
6.839140D-01           2.312454D-04
1.467570D-01          -5.643680D-04
7.058300D-02           4.992260D-04
3.144900D-02          -1.015293D-04
S   20   1.00
4.316265D+06           9.532178D-07
6.463424D+05           7.414605D-06
1.470897D+05           3.898393D-05
4.166152D+04           1.647152D-04
1.359077D+04           5.985980D-04
4.905750D+03           1.942390D-03
1.912746D+03           5.687237D-03
7.926043D+02           1.501329D-02
3.448065D+02           3.452455D-02
1.558999D+02           6.495820D-02
7.223091D+01           7.716194D-02
3.272506D+01          -1.873411D-02
1.566762D+01          -3.009185D-01
7.503483D+00          -4.554661D-01
3.312223D+00           1.286463D-01
1.558471D+00           7.183316D-01
6.839140D-01           4.051743D-01
1.467570D-01           2.168227D-02
7.058300D-02          -8.343566D-03
3.144900D-02           3.658979D-03
S   20   1.00
4.316265D+06          -2.063008D-07
6.463424D+05          -1.604169D-06
1.470897D+05          -8.438437D-06
4.166152D+04          -3.563151D-05
1.359077D+04          -1.295998D-04
4.905750D+03          -4.201534D-04
1.912746D+03          -1.231954D-03
7.926043D+02          -3.248922D-03
3.448065D+02          -7.493717D-03
1.558999D+02          -1.410102D-02
7.223091D+01          -1.691600D-02
3.272506D+01           4.218996D-03
1.566762D+01           6.833810D-02
7.503483D+00           1.098201D-01
3.312223D+00          -4.009005D-02
1.558471D+00          -2.174739D-01
6.839140D-01          -2.465135D-01
1.467570D-01           2.731435D-01
7.058300D-02           5.748321D-01
3.144900D-02           3.012713D-01
S   20   1.00
4.316265D+06          -4.009367D-07
6.463424D+05          -3.189255D-06
1.470897D+05          -1.623079D-05
4.166152D+04          -7.157920D-05
1.359077D+04          -2.463958D-04
4.905750D+03          -8.544907D-04
1.912746D+03          -2.307593D-03
7.926043D+02          -6.728292D-03
3.448065D+02          -1.366165D-02
1.558999D+02          -3.062240D-02
7.223091D+01          -2.631137D-02
3.272506D+01          -9.760183D-03
1.566762D+01           1.801906D-01
7.503483D+00           1.529634D-01
3.312223D+00           5.505413D-02
1.558471D+00          -9.551364D-01
6.839140D-01           2.586813D-01
1.467570D-01           1.834049D+00
7.058300D-02          -9.333240D-01
3.144900D-02          -6.981605D-01
S   1   1.00
3.144900D-02           1.000000D+00
S   1   1.00
1.401000D-02           1.000000D+00
P   16   1.00
1.774569D+04           4.100000D-05
4.200721D+03           3.690000D-04
1.364429D+03           2.129000D-03
5.220806D+02           9.369000D-03
2.214595D+02           3.309700D-02
1.009096D+02           9.443100D-02
4.840115D+01           2.080770D-01
2.398536D+01           3.323330D-01
1.218250D+01           3.329870D-01
6.242298D+00           1.568430D-01
3.110944D+00           2.154900D-02
1.509958D+00          -2.095000D-03
7.108450D-01          -1.739000D-03
2.731900D-01          -3.000000D-04
1.042330D-01           2.900000D-05
3.829100D-02          -1.100000D-05
P   16   1.00
1.774569D+04          -1.500000D-05
4.200721D+03          -1.300000D-04
1.364429D+03          -7.510000D-04
5.220806D+02          -3.329000D-03
2.214595D+02          -1.191200D-02
1.009096D+02          -3.493300D-02
4.840115D+01          -7.998900D-02
2.398536D+01          -1.346360D-01
1.218250D+01          -1.385980D-01
6.242298D+00           3.027800D-02
3.110944D+00           3.332160D-01
1.509958D+00           4.561530D-01
7.108450D-01           2.850510D-01
2.731900D-01           4.614400D-02
1.042330D-01          -3.249000D-03
3.829100D-02           1.357000D-03
P   16   1.00
1.774569D+04           5.000000D-06
4.200721D+03           4.200000D-05
1.364429D+03           2.410000D-04
5.220806D+02           1.085000D-03
2.214595D+02           3.831000D-03
1.009096D+02           1.142300D-02
4.840115D+01           2.579200D-02
2.398536D+01           4.481800D-02
1.218250D+01           4.459800D-02
6.242298D+00          -1.117700D-02
3.110944D+00          -1.381340D-01
1.509958D+00          -1.882850D-01
7.108450D-01          -1.073990D-01
2.731900D-01           4.448630D-01
1.042330D-01           6.402390D-01
3.829100D-02           6.445700D-02
P   16   1.00
1.774569D+04           3.000000D-06
4.200721D+03           2.900000D-05
1.364429D+03           1.650000D-04
5.220806D+02           7.340000D-04
2.214595D+02           2.626000D-03
1.009096D+02           7.725000D-03
4.840115D+01           1.773300D-02
2.398536D+01           3.005500D-02
1.218250D+01           3.109400D-02
6.242298D+00          -1.004800D-02
3.110944D+00          -8.830600D-02
1.509958D+00          -1.298240D-01
7.108450D-01          -7.693700D-02
2.731900D-01           2.126610D-01
1.042330D-01           5.730610D-01
3.829100D-02           3.696510D-01
P   1   1.00
3.829100D-02           1.000000D+00
P   1   1.00
1.407000D-02           1.000000D+00
D   8   1.00
1.133440D+02           3.530000D-03
3.364140D+01           2.578400D-02
1.233100D+01           9.911900D-02
4.994780D+00           2.390730D-01
2.072800D+00           3.571990D-01
8.307530D-01           3.621880D-01
3.091780D-01           2.364610D-01
1.001300D-01           6.011800D-02
D   8   1.00
1.133440D+02          -3.890000D-03
3.364140D+01          -2.844200D-02
1.233100D+01          -1.124290D-01
4.994780D+00          -2.742570D-01
2.072800D+00          -3.155460D-01
8.307530D-01           5.710900D-02
3.091780D-01           5.636040D-01
1.001300D-01           3.846370D-01
D   1   1.00
1.001300D-01           1.000000D+00
D   1   1.00
3.243000D-02           1.000000D+00
F   2   1.00
3.224300D+00           4.222490D-01
7.758000D-01           7.714680D-01
F   1   1.00
2.749000D-01           1.000000D+00
****
$end


--------------------------------------------------------------
 ----------------------------------------------------------------
             Standard Nuclear Orientation (Angstroms)
    I     Atom           X                Y                Z
 ----------------------------------------------------------------
    1      C       2.9849263000    -1.4088745000    -2.0080461000
    2      C       4.2031121000    -1.1190023000    -2.6256704000
    3      C       5.3979761000    -1.7721770000    -2.2299254000
    4      C       5.3358524000    -2.7688274000    -1.2435268000
    5      C       4.1283878000    -3.0705049000    -0.6038099000
    6      C       2.9496606000    -2.3820708000    -0.9403403000
    7      H       4.1973957000    -0.3627217000    -3.4157647000
    8      O       1.8354742000    -0.8146533000    -2.3050774000
    9      C       6.7501163000    -1.3365168000    -2.6698191000
   10      O       7.7747265000    -1.9930877000    -2.4275872000
   11      N       6.8245728000    -0.1120782000    -3.2993000000
   12      H       5.9583530000     0.4175168000    -3.2975995000
   13      C       7.8177370000     1.7132626000    -1.9604701000
   14      H       6.9633750000     2.3757464000    -2.1894958000
   15      H       8.7104393000     2.3585236000    -1.8823779000
   16      C       7.5363858000     1.0267831000    -0.6228593000
   17      H       8.4517776000     0.5017456000    -0.2688823000
   18      H       6.7722544000     0.2479853000    -0.7681952000
   19      N       6.9889282000     1.9539621000     0.3645914000
   20      H       7.6807409000     2.6815967000     0.5624936000
   21      C       5.8807792000     2.2222284000     2.5640090000
   22      H       5.7616744000     1.7197201000     3.5402641000
   23      H       6.5001576000     3.1169994000     2.7531132000
   24      C       6.6436492000     1.2884633000     1.6215929000
   25      H       7.5357926000     0.8810714000     2.1459297000
   26      H       6.0158995000     0.4157926000     1.3695719000
   27      C       4.5097551000     2.6597236000     2.0365817000
   28      H       4.1301705000     3.4875364000     2.6612146000
   29      H       4.6205679000     3.0476430000     1.0111603000
   30      C       3.4725932000     1.5334808000     2.0391619000
   31      H       3.7568152000     0.7274575000     1.3500674000
   32      N       2.1727466000     2.0283465000     1.6150539000
   33      H       1.8708478000     2.9232004000     1.9850256000
   34      C       1.2916279000     1.3462242000     0.8373006000
   35      O       1.6298404000     0.1996472000     0.3977027000
   36      C       0.0244387000     1.9709362000     0.5730046000
   37      H      -0.2592768000     2.8332612000     1.1784884000
   38      C      -2.2589725000     2.1231390000    -0.4049517000
   39      H      -2.8206417000     1.5973149000     0.3854840000
   40      H      -2.2213411000     3.1874058000    -0.1348148000
   41      C      -2.9965621000     2.0007431000    -1.7275942000
   42      O      -2.8893947000     2.8594526000    -2.6121688000
   43      N      -3.7897610000     0.9091300000    -1.8410772000
   44      C      -4.6844249000     0.6698050000    -2.9636102000
   45      H      -3.7930809000     0.2291309000    -1.0851068000
   46      C      -6.1481661000     0.6224153000    -2.5124949000
   47      H      -4.4109598000    -0.2808821000    -3.4487953000
   48      H      -4.5137343000     1.4850034000    -3.6804575000
   49      C      -6.6481481000     1.9417823000    -1.9184016000
   50      H      -6.7747026000     0.3354889000    -3.3758279000
   51      H      -6.2562431000    -0.1864908000    -1.7724188000
   52      C      -7.9630710000     1.8076779000    -1.1299525000
   53      H      -6.7883439000     2.6859823000    -2.7228636000
   54      H      -5.8734391000     2.3548650000    -1.2514696000
   55      H      -8.2945301000     2.8179515000    -0.8269754000
   56      H      -8.7481600000     1.4053250000    -1.7946481000
   57      C      -5.8483295000    -1.7733099000     0.5525908000
   58      C      -4.4220506000    -2.4812248000    -1.3341350000
   59      O      -6.8819681000    -1.9138798000    -0.1364021000
   60      C      -4.4967859000    -1.9873325000    -0.0224982000
   61      C      -3.1946217000    -2.5853705000    -1.9943387000
   62      C      -3.2948716000    -1.6405662000     0.6510520000
   63      C      -2.0043668000    -2.1917364000    -1.3580197000
   64      C      -2.0536210000    -1.7612459000     0.0214923000
   65      H      -3.2961398000    -1.2386736000     1.6671386000
   66      O      -0.8249284000    -2.1689772000    -1.9440060000
   67      C      -0.8505229000     1.5272390000    -0.4069134000
   68      O      -0.6063953000     0.6214441000    -1.2885250000
   69      H       4.0903918000    -3.8156055000     0.1961070000
   70      O       1.7901630000    -2.5517662000    -0.3332789000
   71      H      -3.1455359000    -2.9287585000    -3.0313292000
   72      O      -0.8934362000    -1.4533167000     0.5885859000
   73      Fe      0.4902030000    -1.0954218000    -0.8419516000
   74      N      -7.9324631000     0.9648271000     0.0695833000
   75      H      -7.7696340000    -0.0081525000    -0.2031831000
   76      N      -5.9282770000    -1.3899743000     1.8579389000
   77      H      -5.0651030000    -1.2215309000     2.3603539000
   78      C      -7.1421822000    -0.8220690000     2.4256656000
   79      H      -7.9821554000    -1.2130414000     1.8376605000
   80      H      -7.2573864000    -1.1844375000     3.4589048000
   81      C      -7.1436833000     0.7151066000     2.4143978000
   82      H      -8.1167199000     1.0564605000     2.8084699000
   83      H      -6.3645034000     1.0804557000     3.1068124000
   84      C      -6.9031371000     1.3441765000     1.0394105000
   85      H      -6.9281407000     2.4420199000     1.1510757000
   86      H      -5.8756777000     1.0929261000     0.7020811000
   87      H      -5.3502188000    -2.7451900000    -1.8405997000
   88      H       6.2616386000    -3.2610075000    -0.9434032000
   89      H       3.4084083000     1.0921166000     3.0528598000
   90      C       8.0105664000     0.7242202000    -3.1217771000
   91      H       8.2189479000     1.2754754000    -4.0519890000
   92      H       8.8548057000     0.0479016000    -2.9320507000
 ----------------------------------------------------------------
 Nuclear Repulsion Energy =        7394.46279453 hartrees
 There are      194 alpha and      189 beta electrons
 Requested basis set is non-standard
 There are 666 shells and 1550 basis functions

 Total QAlloc Memory Limit  30000 MB
 Mega-Array Size       188 MB
 MEM_STATIC part       192 MB

 Using C-PCM dielectric factor f(eps) = (eps-1)/eps = 0.987243
No default van der Waals radius is available for Z = 26
	Found R = 2.4400 A in the $van_der_waals section
 Discretize the solute cavity surface with Lebedev spheres
	Using 110 Lebedev grid points for each H atom
	Using 194 Lebedev grid points for other atoms
	Atomic van der Waals radii (Bondi set) will be scaled by 1.20
 Using smooth SwiG surface discretization
 Remove points where switching function is < 1.0e-08
 Keep 5415 surface tesserae and discard 8821 interior tesserae
 Molecular Surface Area = 668.483 Angst**2

 A cutoff of  1.0D-12 yielded 163618 shell pairs
 There are    832746 function pairs (    941845 Cartesian)
 Smallest overlap matrix eigenvalue = 3.33E-07
 Linear dependence detected in AO basis
 Tighter screening thresholds may be required for diffuse basis sets
 Use S2THRESH > 14 and THRESH = 14 in case of SCF convergence issues
 Number of orthogonalized atomic orbitals = 1545
 Maximum deviation from orthogonality = 2.284E-10

 Scale SEOQF with 1.000000e-02/1.000000e-01/1.000000e-01

 Standard Electronic Orientation quadrupole field applied
 Nucleus-field energy     =    -0.0000000096 hartrees
 ================ Generating on-the-fly SAD Guess ================
 Attempting to make child job directory: /data/scratch/C_FePBstar_enol_ctL_S_2sextet_camb3lyo_augccpVDZ_pcmH2O_tddft100_220240524131139//Frg1/
 Attempting to make child job directory: /data/scratch/C_FePBstar_enol_ctL_S_2sextet_camb3lyo_augccpVDZ_pcmH2O_tddft100_220240524131139//Frg2/
 Attempting to make child job directory: /data/scratch/C_FePBstar_enol_ctL_S_2sextet_camb3lyo_augccpVDZ_pcmH2O_tddft100_220240524131139//Frg3/
 Attempting to make child job directory: /data/scratch/C_FePBstar_enol_ctL_S_2sextet_camb3lyo_augccpVDZ_pcmH2O_tddft100_220240524131139//Frg4/
 Attempting to make child job directory: /data/scratch/C_FePBstar_enol_ctL_S_2sextet_camb3lyo_augccpVDZ_pcmH2O_tddft100_220240524131139//Frg5/
 Creating input file /data/scratch/C_FePBstar_enol_ctL_S_2sextet_camb3lyo_augccpVDZ_pcmH2O_tddft100_220240524131139/Frg1.input
 using default PutDataFrgm: nothing
 calling putenv with: QCSCRATCH=/data/scratch/C_FePBstar_enol_ctL_S_2sextet_camb3lyo_augccpVDZ_pcmH2O_tddft100_220240524131139/ 
 Spawning Job For Fragment 0
 Done Job For Fragment 0
 calling putenv with: QCSCRATCH=/data/scratch 
 calling putenv with: QCTHREADS=16 
 Creating input file /data/scratch/C_FePBstar_enol_ctL_S_2sextet_camb3lyo_augccpVDZ_pcmH2O_tddft100_220240524131139/Frg2.input
 using default PutDataFrgm: nothing
 calling putenv with: QCSCRATCH=/data/scratch/C_FePBstar_enol_ctL_S_2sextet_camb3lyo_augccpVDZ_pcmH2O_tddft100_220240524131139/ 
 Spawning Job For Fragment 1
 Done Job For Fragment 1
 calling putenv with: QCSCRATCH=/data/scratch 
 calling putenv with: QCTHREADS=16 
 Creating input file /data/scratch/C_FePBstar_enol_ctL_S_2sextet_camb3lyo_augccpVDZ_pcmH2O_tddft100_220240524131139/Frg3.input
 using default PutDataFrgm: nothing
 calling putenv with: QCSCRATCH=/data/scratch/C_FePBstar_enol_ctL_S_2sextet_camb3lyo_augccpVDZ_pcmH2O_tddft100_220240524131139/ 
 Spawning Job For Fragment 2
 Done Job For Fragment 2
 calling putenv with: QCSCRATCH=/data/scratch 
 calling putenv with: QCTHREADS=16 
 Creating input file /data/scratch/C_FePBstar_enol_ctL_S_2sextet_camb3lyo_augccpVDZ_pcmH2O_tddft100_220240524131139/Frg4.input
 using default PutDataFrgm: nothing
 calling putenv with: QCSCRATCH=/data/scratch/C_FePBstar_enol_ctL_S_2sextet_camb3lyo_augccpVDZ_pcmH2O_tddft100_220240524131139/ 
 Spawning Job For Fragment 3
 Done Job For Fragment 3
 calling putenv with: QCSCRATCH=/data/scratch 
 calling putenv with: QCTHREADS=16 
 Creating input file /data/scratch/C_FePBstar_enol_ctL_S_2sextet_camb3lyo_augccpVDZ_pcmH2O_tddft100_220240524131139/Frg5.input
 using default PutDataFrgm: nothing
 calling putenv with: QCSCRATCH=/data/scratch/C_FePBstar_enol_ctL_S_2sextet_camb3lyo_augccpVDZ_pcmH2O_tddft100_220240524131139/ 
 Spawning Job For Fragment 4
 Done Job For Fragment 4
 calling putenv with: QCSCRATCH=/data/scratch 
 calling putenv with: QCTHREADS=16 
 Time for running child jobs:  CPU 0.03 s  wall 305.84 s
 ============= Method Specific SAD Guess Constructed =============
 Guess from on-the-fly superposition of atomic densities
 Warning: Energy on first SCF cycle will be non-variational

 -----------------------------------------------------------------------
  General SCF calculation program by
  Eric Jon Sundstrom, Paul Horn, Yuezhi Mao, Dmitri Zuev, Alec White,
  David Stuck, Shaama M.S., Shane Yost, Joonho Lee, David Small,
  Daniel Levine, Susi Lehtola, Hugh Burton, Evgeny Epifanovsky,
  Bang C. Huynh
 -----------------------------------------------------------------------
 Exchange:     0.1900 Hartree-Fock + 0.3500 B88 + 0.4600 muB88 + LR-HF
 Correlation:  0.1900 VWN5 + 0.8100 LYP
 Using SG-1 standard quadrature grid
 using 16 threads for integral computing
 -------------------------------------------------------
 OpenMP Integral computing Module                
 Release: version 1.0, May 2013, Q-Chem Inc. Pittsburgh 
 -------------------------------------------------------
 C-PCM solvent model [f = (eps-1)/eps], solve by matrix inversion
 A unrestricted SCF calculation will be
 performed using DIIS
 SCF converges when DIIS error is below 1.0e-08
 ---------------------------------------
  Cycle       Energy         DIIS error
 ---------------------------------------
    1   -3580.6125689486      9.18e-03  
    2   -3551.2992119809      1.00e-03  
    3   -3550.4776442195      1.64e-03  
    4   -3552.2892375144      5.32e-04  
    5   -3552.4838192559      1.34e-04  
    6   -3552.5003595542      7.99e-05  
    7   -3552.5075548718      1.98e-05  
    8   -3552.5084373713      1.24e-05  
    9   -3552.5087202443      5.44e-06  
   10   -3552.5087879033      2.15e-06  
   11   -3552.5088038331      1.08e-06  
   12   -3552.5088099844      5.55e-07  
   13   -3552.5088119586      3.15e-07  
   14   -3552.5088127210      1.73e-07  
   15   -3552.5088129201      1.07e-07  
   16   -3552.5088130033      6.09e-08  
   17   -3552.5088130295      4.12e-08  
   18   -3552.5088130412      2.62e-08  
   19   -3552.5088130438      1.17e-08  
   20   -3552.5088130414      7.28e-09  Convergence criterion met
 ---------------------------------------
 SCF time:   CPU 622105.05s  wall 46942.00s 
<S^2> =          8.757409298

************** Final PCM Free Energy Summary **************
 G_electrostatic  =      -0.30089754 hartree =    -188.81605632 kcal/mol
 G_cavitation     =       0.00000000 hartree =       0.00000000 kcal/mol
 G_dispersion     =       0.00000000 hartree =       0.00000000 kcal/mol
 G_repulsion      =       0.00000000 hartree =       0.00000000 kcal/mol
 --------------------------------------------------
 Non-electrostatic Free Energy =       0.00000000 hartree =       0.00000000 kcal/mol
 Total                         =      -0.30089754 hartree =    -188.81605632 kcal/mol
 --------------------------------------------------
 SCF Energy (H0 + V/2)                       =   -3552.50881304 
 Solute Internal Energy (H0)                 =   -3552.20791550 
 Total Free Energy (H0 + V/2 + non-elec)     =   -3552.50881304 hartree
                                             = -2229232.92599446 kcal/mol
***********************************************************

 SCF   energy in the final basis set =    -3552.5088130414
 Total energy in the final basis set =    -3552.5088130414
 
 MAX_CIS_SUBSPACE fits in available memory
 Direct TDDFT/TDA calculation will be performed
 Exchange:     0.1900 Hartree-Fock + 0.3500 B88 + 0.4600 muB88 + LR-HF
 Correlation:  0.1900 VWN5 + 0.8100 LYP
 Using SG-1 standard quadrature grid
 Adding PCM contribution to the XC response (LR-PCM)
 CIS energy converged when residual is below 10e- 6
 ---------------------------------------------------
 Iter    Rts Conv    Rts Left    Ttl Dev     Max Dev
 ---------------------------------------------------
   1         0         100      0.004249    0.000212
   2         0         100      0.002425    0.000061
   3         0         100      0.002951    0.000105
   4         0         100      0.003846    0.000101
   5         6          94      0.002861    0.000097
   6        14          86      0.001549    0.000072
   7        20          80      0.000946    0.000048
   8        36          64      0.000384    0.000018
   9        63          37      0.000198    0.000035
  10        83          17      0.000067    0.000016
  11        99           1      0.000029    0.000005
  12        99           1      0.000025    0.000002
  13       100           0      0.000024    0.000001    Roots Converged
 ---------------------------------------------------
 
 ---------------------------------------------------
         TDDFT/TDA Excitation Energies              
 ---------------------------------------------------

 Excited state   1: excitation energy (eV) =    2.1200
 Total energy for state  1:                 -3552.43090381 au
    <S**2>     :  8.8512
    Trans. Mom.: -0.7337 X   0.0037 Y   0.1510 Z
    Strength   :     0.0291420931
    D(  188) --> S(    3) amplitude =  0.1563 beta
    D(  189) --> S(    1) amplitude =  0.8480 beta
    D(  189) --> S(    2) amplitude = -0.2552 beta
    D(  189) --> S(    3) amplitude =  0.3133 beta

 Excited state   2: excitation energy (eV) =    2.1885
 Total energy for state  2:                 -3552.42838778 au
    <S**2>     :  8.8560
    Trans. Mom.:  0.7117 X  -0.0071 Y  -0.1376 Z
    Strength   :     0.0281782575
    D(  188) --> S(    1) amplitude =  0.7692 beta
    D(  188) --> S(    2) amplitude = -0.3275 beta
    D(  188) --> S(    3) amplitude =  0.3020 beta
    D(  189) --> S(    1) amplitude = -0.2699 beta
    D(  189) --> S(    2) amplitude = -0.2577 beta

 Excited state   3: excitation energy (eV) =    2.2465
 Total energy for state  3:                 -3552.42625427 au
    <S**2>     :  8.7964
    Trans. Mom.:  0.8952 X   0.0113 Y  -0.1873 Z
    Strength   :     0.0460436346
    D(  188) --> S(    1) amplitude = -0.2021 beta
    D(  189) --> S(    1) amplitude = -0.3317 beta
    D(  189) --> S(    2) amplitude = -0.1905 beta
    D(  189) --> S(    3) amplitude =  0.8653 beta

 Excited state   4: excitation energy (eV) =    2.2651
 Total energy for state  4:                 -3552.42557193 au
    <S**2>     :  8.7884
    Trans. Mom.: -0.2426 X   0.0684 Y   0.0765 Z
    Strength   :     0.0038509598
    D(  188) --> S(    1) amplitude = -0.1892 beta
    D(  188) --> S(    2) amplitude = -0.4510 beta
    D(  188) --> S(    3) amplitude =  0.5615 beta
    D(  189) --> S(    2) amplitude =  0.6025 beta

 Excited state   5: excitation energy (eV) =    2.2852
 Total energy for state  5:                 -3552.42483454 au
    <S**2>     :  8.7959
    Trans. Mom.: -1.1646 X   0.0195 Y   0.2423 Z
    Strength   :     0.0792388717
    D(  188) --> S(    1) amplitude =  0.1989 beta
    D(  188) --> S(    2) amplitude =  0.7989 beta
    D(  188) --> S(    3) amplitude =  0.4500 beta
    D(  189) --> S(    2) amplitude =  0.2288 beta

 Excited state   6: excitation energy (eV) =    2.5620
 Total energy for state  6:                 -3552.41466209 au
    <S**2>     :  8.8864
    Trans. Mom.:  0.1122 X   0.3691 Y   0.1254 Z
    Strength   :     0.0103310033
    D(  188) --> S(    1) amplitude =  0.4188 beta
    D(  188) --> S(    3) amplitude = -0.5420 beta
    D(  189) --> S(    2) amplitude =  0.5754 beta
    D(  189) --> S(    3) amplitude =  0.2474 beta

 Excited state   7: excitation energy (eV) =    2.9724
 Total energy for state  7:                 -3552.39957838 au
    <S**2>     : 10.5571
    Trans. Mom.:  0.4203 X   0.0307 Y  -0.1271 Z
    Strength   :     0.0141073702
    S(    4) --> V(    2) amplitude =  0.2001 alpha
    S(    4) --> V(    3) amplitude =  0.4032 alpha
    S(    5) --> V(    2) amplitude = -0.3947 alpha
    S(    5) --> V(    3) amplitude =  0.1672 alpha
    S(    5) --> V(    6) amplitude =  0.1781 alpha
    D(  188) --> S(    4) amplitude = -0.1593 beta
    D(  188) --> S(    5) amplitude = -0.2479 beta
    D(  188) --> V(    1) amplitude =  0.2525 beta
    D(  189) --> V(    1) amplitude = -0.1836 beta
    D(  189) --> V(    2) amplitude = -0.2360 beta
    D(  189) --> V(    5) amplitude = -0.2523 beta

 Excited state   8: excitation energy (eV) =    2.9882
 Total energy for state  8:                 -3552.39899959 au
    <S**2>     : 10.4810
    Trans. Mom.: -0.0009 X  -0.0782 Y  -0.0501 Z
    Strength   :     0.0006316686
    S(    4) --> V(    2) amplitude = -0.3920 alpha
    S(    4) --> V(    3) amplitude = -0.1549 alpha
    S(    4) --> V(    6) amplitude =  0.1748 alpha
    S(    5) --> V(    1) amplitude =  0.1545 alpha
    S(    5) --> V(    2) amplitude = -0.1622 alpha
    S(    5) --> V(    3) amplitude =  0.4006 alpha
    D(  188) --> V(    1) amplitude = -0.2516 beta
    D(  188) --> V(    2) amplitude = -0.1792 beta
    D(  188) --> V(    5) amplitude = -0.2374 beta
    D(  189) --> S(    4) amplitude = -0.1723 beta
    D(  189) --> S(    5) amplitude = -0.2555 beta
    D(  189) --> V(    2) amplitude = -0.1988 beta

 Excited state   9: excitation energy (eV) =    3.2563
 Total energy for state  9:                 -3552.38914766 au
    <S**2>     :  9.6846
    Trans. Mom.:  0.2276 X   0.1028 Y   0.1153 Z
    Strength   :     0.0060376770
    S(    3) --> V(   10) amplitude = -0.3050 alpha
    S(    3) --> V(   12) amplitude =  0.1970 alpha
    D(  187) --> S(    1) amplitude =  0.3869 beta
    D(  187) --> S(    2) amplitude = -0.4006 beta
    D(  187) --> S(    3) amplitude =  0.5482 beta
    D(  187) --> S(    5) amplitude =  0.1941 beta
    D(  187) --> V(    1) amplitude =  0.1671 beta

 Excited state  10: excitation energy (eV) =    3.3742
 Total energy for state 10:                 -3552.38481465 au
    <S**2>     :  8.8177
    Trans. Mom.:  0.0662 X   0.0924 Y  -0.0018 Z
    Strength   :     0.0010681252
    D(  188) --> S(    4) amplitude =  0.1531 beta
    D(  188) --> S(    5) amplitude =  0.3555 beta
    D(  188) --> V(    1) amplitude =  0.1527 beta
    D(  188) --> V(    2) amplitude = -0.1573 beta
    D(  188) --> V(    3) amplitude = -0.1660 beta
    D(  189) --> S(    4) amplitude =  0.2235 beta
    D(  189) --> S(    5) amplitude =  0.5274 beta
    D(  189) --> V(    1) amplitude =  0.2619 beta
    D(  189) --> V(    2) amplitude = -0.2343 beta
    D(  189) --> V(    3) amplitude = -0.2631 beta
    D(  189) --> V(    4) amplitude = -0.1558 beta
    D(  189) --> V(   15) amplitude =  0.1729 beta

 Excited state  11: excitation energy (eV) =    3.4060
 Total energy for state 11:                 -3552.38364383 au
    <S**2>     :  8.8386
    Trans. Mom.: -0.0078 X  -0.0733 Y   0.0002 Z
    Strength   :     0.0004531324
    D(  187) --> S(    1) amplitude =  0.6571 beta
    D(  187) --> S(    2) amplitude =  0.2239 beta
    D(  187) --> S(    3) amplitude = -0.2558 beta
    D(  188) --> S(    5) amplitude = -0.2459 beta
    D(  188) --> V(    9) amplitude = -0.2069 beta
    D(  189) --> S(    5) amplitude =  0.2550 beta
    D(  189) --> V(    9) amplitude =  0.1710 beta

 Excited state  12: excitation energy (eV) =    3.4244
 Total energy for state 12:                 -3552.38297024 au
    <S**2>     :  8.8385
    Trans. Mom.:  0.2160 X  -0.1210 Y  -0.1025 Z
    Strength   :     0.0060253389
    D(  187) --> S(    1) amplitude =  0.5238 beta
    D(  187) --> S(    2) amplitude =  0.2081 beta
    D(  188) --> S(    4) amplitude =  0.1796 beta
    D(  188) --> S(    5) amplitude =  0.3977 beta
    D(  188) --> V(    1) amplitude =  0.1583 beta
    D(  188) --> V(    2) amplitude = -0.1563 beta
    D(  188) --> V(    3) amplitude = -0.1608 beta
    D(  188) --> V(    4) amplitude = -0.1576 beta
    D(  188) --> V(    9) amplitude =  0.2720 beta
    D(  189) --> S(    5) amplitude = -0.2258 beta
    D(  189) --> V(    9) amplitude = -0.2188 beta

 Excited state  13: excitation energy (eV) =    3.4974
 Total energy for state 13:                 -3552.38028415 au
    <S**2>     :  8.7993
    Trans. Mom.: -0.1757 X   0.2596 Y   0.1206 Z
    Strength   :     0.0096657039
    D(  187) --> S(    2) amplitude =  0.7293 beta
    D(  187) --> S(    3) amplitude =  0.5503 beta
    D(  188) --> V(    9) amplitude = -0.1811 beta

 Excited state  14: excitation energy (eV) =    3.5375
 Total energy for state 14:                 -3552.37881256 au
    <S**2>     :  9.1686
    Trans. Mom.:  0.1693 X   0.0013 Y  -0.0010 Z
    Strength   :     0.0024849132
    D(  188) --> S(    5) amplitude =  0.1777 beta
    D(  188) --> V(    9) amplitude =  0.2197 beta
    D(  189) --> V(    1) amplitude = -0.1766 beta
    D(  189) --> V(    5) amplitude = -0.2388 beta
    D(  189) --> V(    6) amplitude = -0.1727 beta
    D(  189) --> V(    8) amplitude = -0.3081 beta
    D(  189) --> V(    9) amplitude =  0.6162 beta

 Excited state  15: excitation energy (eV) =    3.5772
 Total energy for state 15:                 -3552.37735516 au
    <S**2>     :  9.5830
    Trans. Mom.: -0.0812 X   0.0837 Y   0.0272 Z
    Strength   :     0.0012567708
    S(    4) --> V(   21) amplitude = -0.2334 alpha
    S(    4) --> V(   24) amplitude = -0.1781 alpha
    D(  187) --> S(    2) amplitude =  0.1652 beta
    D(  188) --> S(    5) amplitude = -0.2059 beta
    D(  188) --> V(    1) amplitude = -0.2312 beta
    D(  188) --> V(    3) amplitude =  0.1710 beta
    D(  188) --> V(    5) amplitude = -0.1793 beta
    D(  188) --> V(    8) amplitude = -0.2534 beta
    D(  188) --> V(    9) amplitude =  0.4425 beta

 Excited state  16: excitation energy (eV) =    3.6752
 Total energy for state 16:                 -3552.37375099 au
    <S**2>     :  9.6759
    Trans. Mom.:  0.3540 X   0.0836 Y   0.0649 Z
    Strength   :     0.0122948085
    S(    3) --> V(   10) amplitude =  0.4056 alpha
    S(    3) --> V(   12) amplitude = -0.2611 alpha
    D(  187) --> S(    2) amplitude = -0.2952 beta
    D(  187) --> S(    3) amplitude =  0.4357 beta
    D(  187) --> S(    5) amplitude = -0.2715 beta
    D(  187) --> V(    1) amplitude = -0.1681 beta
    D(  187) --> V(    3) amplitude =  0.1648 beta
    D(  187) --> V(   15) amplitude =  0.1895 beta

 Excited state  17: excitation energy (eV) =    3.7071
 Total energy for state 17:                 -3552.37258001 au
    <S**2>     : 10.1953
    Trans. Mom.:  0.3212 X  -0.0728 Y  -0.0348 Z
    Strength   :     0.0099585078
    S(    4) --> V(   21) amplitude = -0.1722 alpha
    S(    5) --> V(   22) amplitude = -0.2990 alpha
    S(    5) --> V(   24) amplitude =  0.1960 alpha
    D(  189) --> V(    9) amplitude =  0.2609 beta
    D(  189) --> V(   22) amplitude = -0.2436 beta
    D(  189) --> V(   24) amplitude = -0.2156 beta

 Excited state  18: excitation energy (eV) =    3.7346
 Total energy for state 18:                 -3552.37156797 au
    <S**2>     :  9.8288
    Trans. Mom.: -0.0737 X  -0.0538 Y  -0.0327 Z
    Strength   :     0.0008607006
    S(    4) --> V(   21) amplitude =  0.2781 alpha
    S(    4) --> V(   24) amplitude =  0.2205 alpha
    D(  188) --> V(    1) amplitude = -0.1985 beta
    D(  188) --> V(    8) amplitude = -0.1721 beta
    D(  188) --> V(    9) amplitude =  0.3608 beta
    D(  188) --> V(   21) amplitude = -0.2202 beta
    D(  188) --> V(   22) amplitude = -0.1652 beta
    D(  188) --> V(   24) amplitude = -0.2452 beta

 Excited state  19: excitation energy (eV) =    3.8372
 Total energy for state 19:                 -3552.36780000 au
    <S**2>     :  9.2613
    Trans. Mom.: -0.8189 X   0.0387 Y   0.1214 Z
    Strength   :     0.0645731014
    D(  185) --> S(    2) amplitude = -0.1801 beta
    D(  186) --> S(    1) amplitude =  0.7636 beta
    D(  186) --> S(    2) amplitude =  0.2674 beta

 Excited state  20: excitation energy (eV) =    3.9020
 Total energy for state 20:                 -3552.36541809 au
    <S**2>     :  9.2930
    Trans. Mom.: -0.5324 X  -0.0432 Y   0.0773 Z
    Strength   :     0.0278451758
    D(  185) --> S(    1) amplitude =  0.5846 beta
    D(  185) --> S(    2) amplitude = -0.1870 beta
    D(  185) --> S(    3) amplitude = -0.1555 beta
    D(  186) --> S(    1) amplitude =  0.1830 beta
    D(  186) --> S(    2) amplitude = -0.4665 beta

 Excited state  21: excitation energy (eV) =    4.0013
 Total energy for state 21:                 -3552.36176748 au
    <S**2>     :  8.8553
    Trans. Mom.: -0.1575 X   0.0778 Y   0.0543 Z
    Strength   :     0.0033123754
    D(  172) --> S(    3) amplitude =  0.1815 beta
    D(  178) --> S(    3) amplitude =  0.1789 beta
    D(  179) --> S(    3) amplitude = -0.1682 beta
    D(  181) --> S(    1) amplitude =  0.1555 beta
    D(  181) --> S(    3) amplitude =  0.1940 beta
    D(  185) --> S(    1) amplitude = -0.1729 beta
    D(  186) --> S(    1) amplitude =  0.1554 beta
    D(  186) --> S(    2) amplitude = -0.4281 beta
    D(  186) --> S(    3) amplitude =  0.5473 beta

 Excited state  22: excitation energy (eV) =    4.0364
 Total energy for state 22:                 -3552.36047751 au
    <S**2>     :  8.7934
    Trans. Mom.:  0.1757 X   0.0371 Y  -0.1045 Z
    Strength   :     0.0042699006
    D(  172) --> S(    1) amplitude =  0.1774 beta
    D(  173) --> S(    1) amplitude = -0.1571 beta
    D(  173) --> S(    2) amplitude = -0.2143 beta
    D(  174) --> S(    1) amplitude =  0.1831 beta
    D(  174) --> S(    2) amplitude =  0.1806 beta
    D(  175) --> S(    1) amplitude = -0.1530 beta
    D(  177) --> S(    1) amplitude = -0.2057 beta
    D(  177) --> S(    2) amplitude = -0.2486 beta
    D(  179) --> S(    2) amplitude =  0.1824 beta
    D(  181) --> S(    1) amplitude = -0.3882 beta
    D(  181) --> S(    2) amplitude = -0.3788 beta
    D(  182) --> S(    1) amplitude = -0.2995 beta
    D(  185) --> S(    2) amplitude =  0.1720 beta

 Excited state  23: excitation energy (eV) =    4.0548
 Total energy for state 23:                 -3552.35980344 au
    <S**2>     :  8.8793
    Trans. Mom.:  0.0417 X  -0.2286 Y  -0.1149 Z
    Strength   :     0.0066763566
    D(  174) --> S(    1) amplitude = -0.1707 beta
    D(  174) --> S(    2) amplitude =  0.1876 beta
    D(  175) --> S(    1) amplitude =  0.1503 beta
    D(  179) --> S(    2) amplitude =  0.1512 beta
    D(  181) --> S(    1) amplitude =  0.2779 beta
    D(  181) --> S(    2) amplitude = -0.2759 beta
    D(  182) --> S(    1) amplitude =  0.2787 beta
    D(  185) --> S(    1) amplitude =  0.3389 beta
    D(  186) --> S(    2) amplitude =  0.4578 beta

 Excited state  24: excitation energy (eV) =    4.0814
 Total energy for state 24:                 -3552.35882367 au
    <S**2>     :  8.8925
    Trans. Mom.: -0.5841 X  -0.1986 Y   0.2356 Z
    Strength   :     0.0436030371
    D(  172) --> S(    3) amplitude =  0.1692 beta
    D(  181) --> S(    1) amplitude = -0.1848 beta
    D(  181) --> S(    2) amplitude =  0.1821 beta
    D(  181) --> S(    3) amplitude = -0.2222 beta
    D(  182) --> S(    1) amplitude = -0.1762 beta
    D(  182) --> S(    3) amplitude = -0.1866 beta
    D(  185) --> S(    1) amplitude =  0.2367 beta
    D(  186) --> S(    3) amplitude =  0.5550 beta

 Excited state  25: excitation energy (eV) =    4.1090
 Total energy for state 25:                 -3552.35780992 au
    <S**2>     :  8.8627
    Trans. Mom.:  0.4358 X  -0.1416 Y  -0.3691 Z
    Strength   :     0.0348603168
    D(  172) --> S(    2) amplitude =  0.1595 beta
    D(  173) --> S(    2) amplitude =  0.1707 beta
    D(  174) --> S(    3) amplitude = -0.2140 beta
    D(  178) --> S(    2) amplitude =  0.1833 beta
    D(  178) --> S(    3) amplitude =  0.1505 beta
    D(  179) --> S(    2) amplitude = -0.1688 beta
    D(  179) --> S(    3) amplitude = -0.2006 beta
    D(  180) --> S(    2) amplitude = -0.1501 beta
    D(  181) --> S(    2) amplitude =  0.2614 beta
    D(  181) --> S(    3) amplitude =  0.2616 beta
    D(  185) --> S(    1) amplitude =  0.2294 beta
    D(  185) --> S(    2) amplitude =  0.3815 beta
    D(  185) --> S(    3) amplitude =  0.1730 beta
    D(  188) --> V(    1) amplitude = -0.1914 beta

 Excited state  26: excitation energy (eV) =    4.1270
 Total energy for state 26:                 -3552.35714725 au
    <S**2>     :  8.8244
    Trans. Mom.:  0.1339 X   0.1043 Y  -0.0767 Z
    Strength   :     0.0035064190
    D(  174) --> S(    3) amplitude =  0.2884 beta
    D(  178) --> S(    3) amplitude = -0.2175 beta
    D(  179) --> S(    3) amplitude =  0.3138 beta
    D(  181) --> S(    3) amplitude = -0.3534 beta
    D(  185) --> S(    2) amplitude =  0.5307 beta
    D(  186) --> S(    1) amplitude =  0.1920 beta

 Excited state  27: excitation energy (eV) =    4.1412
 Total energy for state 27:                 -3552.35662682 au
    <S**2>     :  8.8459
    Trans. Mom.:  0.3568 X  -0.0005 Y  -0.1900 Z
    Strength   :     0.0165807753
    D(  174) --> S(    1) amplitude =  0.2284 beta
    D(  175) --> S(    1) amplitude =  0.1902 beta
    D(  176) --> S(    1) amplitude =  0.2472 beta
    D(  178) --> S(    1) amplitude = -0.1734 beta
    D(  179) --> S(    1) amplitude =  0.3250 beta
    D(  180) --> S(    1) amplitude =  0.3596 beta
    D(  181) --> S(    1) amplitude = -0.1855 beta
    D(  182) --> S(    1) amplitude =  0.4311 beta
    D(  182) --> S(    3) amplitude =  0.1854 beta
    D(  185) --> S(    2) amplitude = -0.2274 beta
    D(  185) --> S(    3) amplitude =  0.2355 beta
    D(  186) --> S(    3) amplitude =  0.1644 beta

 Excited state  28: excitation energy (eV) =    4.1546
 Total energy for state 28:                 -3552.35613416 au
    <S**2>     :  8.8039
    Trans. Mom.:  0.4549 X   0.1302 Y  -0.1951 Z
    Strength   :     0.0266615333
    D(  179) --> S(    1) amplitude = -0.1507 beta
    D(  179) --> S(    3) amplitude =  0.1934 beta
    D(  180) --> S(    1) amplitude = -0.1618 beta
    D(  182) --> S(    1) amplitude = -0.1984 beta
    D(  185) --> S(    2) amplitude = -0.2436 beta
    D(  185) --> S(    3) amplitude =  0.6571 beta

 Excited state  29: excitation energy (eV) =    4.1746
 Total energy for state 29:                 -3552.35539805 au
    <S**2>     :  8.9411
    Trans. Mom.: -1.9571 X  -0.1850 Y   0.7953 Z
    Strength   :     0.4599419512
    S(    4) --> V(    3) amplitude = -0.2022 alpha
    S(    5) --> V(    2) amplitude =  0.2157 alpha
    D(  172) --> S(    1) amplitude =  0.1616 beta
    D(  182) --> S(    2) amplitude =  0.2065 beta
    D(  185) --> S(    2) amplitude =  0.2963 beta
    D(  185) --> S(    3) amplitude =  0.3713 beta
    D(  186) --> S(    3) amplitude = -0.2292 beta
    D(  188) --> V(    1) amplitude =  0.2073 beta
    D(  189) --> V(    2) amplitude = -0.1863 beta

 Excited state  30: excitation energy (eV) =    4.2139
 Total energy for state 30:                 -3552.35395369 au
    <S**2>     :  9.0371
    Trans. Mom.: -0.6310 X  -0.0188 Y   0.4465 Z
    Strength   :     0.0617153372
    D(  175) --> S(    2) amplitude = -0.1896 beta
    D(  175) --> S(    3) amplitude =  0.1571 beta
    D(  176) --> S(    2) amplitude = -0.1541 beta
    D(  176) --> S(    3) amplitude =  0.1699 beta
    D(  180) --> S(    2) amplitude = -0.2620 beta
    D(  180) --> S(    3) amplitude =  0.2517 beta
    D(  182) --> S(    2) amplitude = -0.4280 beta
    D(  182) --> S(    3) amplitude =  0.4147 beta

 Excited state  31: excitation energy (eV) =    4.2416
 Total energy for state 31:                 -3552.35293662 au
    <S**2>     :  8.8099
    Trans. Mom.:  0.1939 X  -0.1076 Y   0.0770 Z
    Strength   :     0.0057245351
    S(    4) --> V(    2) amplitude =  0.1920 alpha
    S(    5) --> V(    3) amplitude = -0.1938 alpha
    D(  175) --> S(    2) amplitude =  0.1859 beta
    D(  175) --> S(    3) amplitude =  0.1533 beta
    D(  176) --> S(    2) amplitude =  0.1806 beta
    D(  180) --> S(    2) amplitude =  0.2492 beta
    D(  180) --> S(    3) amplitude =  0.1990 beta
    D(  182) --> S(    2) amplitude =  0.4207 beta
    D(  182) --> S(    3) amplitude =  0.3696 beta
    D(  185) --> S(    3) amplitude = -0.1516 beta

 Excited state  32: excitation energy (eV) =    4.2629
 Total energy for state 32:                 -3552.35215501 au
    <S**2>     :  9.1390
    Trans. Mom.:  0.4263 X   0.2814 Y  -0.2981 Z
    Strength   :     0.0365290424
    S(    2) --> V(    2) amplitude =  0.1762 alpha
    S(    2) --> V(    3) amplitude = -0.1900 alpha
    S(    4) --> V(    2) amplitude = -0.1727 alpha
    S(    5) --> V(    3) amplitude =  0.2165 alpha
    D(  172) --> S(    1) amplitude =  0.3056 beta
    D(  173) --> S(    1) amplitude =  0.1504 beta
    D(  182) --> S(    2) amplitude =  0.2510 beta
    D(  186) --> S(    2) amplitude =  0.2667 beta
    D(  186) --> S(    3) amplitude =  0.1712 beta
    D(  189) --> V(    2) amplitude =  0.1667 beta

 Excited state  33: excitation energy (eV) =    4.3014
 Total energy for state 33:                 -3552.35074009 au
    <S**2>     :  9.2572
    Trans. Mom.: -0.5304 X   0.1795 Y   0.3913 Z
    Strength   :     0.0491800039
    S(    1) --> V(    2) amplitude =  0.2070 alpha
    S(    1) --> V(    3) amplitude =  0.1856 alpha
    S(    4) --> V(    2) amplitude = -0.2165 alpha
    S(    4) --> V(    3) amplitude = -0.1670 alpha
    D(  172) --> S(    1) amplitude = -0.2158 beta
    D(  180) --> S(    3) amplitude =  0.1629 beta
    D(  182) --> S(    1) amplitude = -0.1674 beta
    D(  182) --> S(    3) amplitude =  0.3109 beta
    D(  185) --> S(    2) amplitude =  0.1800 beta
    D(  186) --> S(    1) amplitude = -0.1548 beta
    D(  188) --> V(    1) amplitude =  0.1623 beta

 Excited state  34: excitation energy (eV) =    4.3171
 Total energy for state 34:                 -3552.35016178 au
    <S**2>     :  9.6170
    Trans. Mom.:  0.1532 X  -0.1630 Y  -0.0728 Z
    Strength   :     0.0058507009
    S(    1) --> V(    2) amplitude = -0.1901 alpha
    S(    1) --> V(    3) amplitude = -0.1994 alpha
    S(    2) --> V(    2) amplitude = -0.2337 alpha
    S(    2) --> V(    3) amplitude =  0.2387 alpha
    D(  171) --> S(    1) amplitude = -0.2141 beta
    D(  172) --> S(    1) amplitude =  0.2155 beta
    D(  173) --> S(    1) amplitude =  0.2345 beta
    D(  185) --> S(    1) amplitude =  0.2835 beta
    D(  185) --> V(    1) amplitude =  0.1576 beta
    D(  186) --> S(    1) amplitude = -0.1630 beta

 Excited state  35: excitation energy (eV) =    4.3519
 Total energy for state 35:                 -3552.34888451 au
    <S**2>     :  9.0574
    Trans. Mom.: -0.0540 X  -0.0057 Y  -0.0282 Z
    Strength   :     0.0003989556
    S(    1) --> V(    2) amplitude = -0.1626 alpha
    S(    1) --> V(    3) amplitude = -0.1587 alpha
    D(  173) --> S(    1) amplitude = -0.4495 beta
    D(  174) --> S(    1) amplitude = -0.2774 beta
    D(  177) --> S(    1) amplitude = -0.4764 beta
    D(  179) --> S(    1) amplitude = -0.2070 beta
    D(  182) --> S(    2) amplitude =  0.1702 beta
    D(  185) --> S(    1) amplitude =  0.1609 beta

 Excited state  36: excitation energy (eV) =    4.4054
 Total energy for state 36:                 -3552.34691839 au
    <S**2>     :  9.0665
    Trans. Mom.:  0.4036 X  -0.0841 Y  -0.2012 Z
    Strength   :     0.0227118909
    S(    1) --> V(    2) amplitude =  0.1615 alpha
    D(  171) --> S(    1) amplitude =  0.2698 beta
    D(  171) --> S(    2) amplitude =  0.1537 beta
    D(  172) --> S(    1) amplitude =  0.6039 beta
    D(  186) --> S(    1) amplitude = -0.2537 beta

 Excited state  37: excitation energy (eV) =    4.4677
 Total energy for state 37:                 -3552.34462726 au
    <S**2>     :  8.8106
    Trans. Mom.:  0.0176 X   0.1006 Y   0.2521 Z
    Strength   :     0.0080963473
    D(  172) --> S(    2) amplitude =  0.3269 beta
    D(  173) --> S(    2) amplitude =  0.4067 beta
    D(  174) --> S(    2) amplitude =  0.3681 beta
    D(  175) --> S(    2) amplitude = -0.1777 beta
    D(  177) --> S(    2) amplitude =  0.4406 beta
    D(  179) --> S(    2) amplitude =  0.3124 beta

 Excited state  38: excitation energy (eV) =    4.4916
 Total energy for state 38:                 -3552.34375119 au
    <S**2>     :  8.8079
    Trans. Mom.:  0.2205 X   0.0237 Y  -0.1535 Z
    Strength   :     0.0080031665
    D(  171) --> S(    3) amplitude =  0.2332 beta
    D(  172) --> S(    2) amplitude = -0.2063 beta
    D(  172) --> S(    3) amplitude =  0.6044 beta
    D(  173) --> S(    3) amplitude =  0.2615 beta
    D(  175) --> S(    3) amplitude = -0.1816 beta
    D(  177) --> S(    3) amplitude =  0.2890 beta
    D(  186) --> S(    3) amplitude = -0.1609 beta

 Excited state  39: excitation energy (eV) =    4.5181
 Total energy for state 39:                 -3552.34277522 au
    <S**2>     :  8.8619
    Trans. Mom.:  0.3414 X   0.2490 Y   0.1663 Z
    Strength   :     0.0228250067
    D(  170) --> S(    2) amplitude = -0.1624 beta
    D(  172) --> S(    2) amplitude = -0.4085 beta
    D(  173) --> S(    3) amplitude = -0.2479 beta
    D(  177) --> S(    3) amplitude = -0.3032 beta
    D(  179) --> S(    3) amplitude = -0.1545 beta
    D(  187) --> S(    5) amplitude =  0.3019 beta

 Excited state  40: excitation energy (eV) =    4.5292
 Total energy for state 40:                 -3552.34236935 au
    <S**2>     :  9.3095
    Trans. Mom.: -0.0941 X   0.1103 Y   0.0903 Z
    Strength   :     0.0032371804
    S(    5) --> V(    1) amplitude = -0.2845 alpha
    S(    5) --> V(    2) amplitude = -0.1780 alpha
    S(    5) --> V(    4) amplitude =  0.2936 alpha
    S(    5) --> V(    6) amplitude = -0.1906 alpha
    D(  170) --> S(    2) amplitude =  0.1632 beta
    D(  171) --> S(    2) amplitude = -0.2174 beta
    D(  171) --> S(    3) amplitude =  0.2379 beta
    D(  172) --> S(    2) amplitude =  0.2931 beta
    D(  173) --> S(    3) amplitude = -0.1980 beta
    D(  177) --> S(    3) amplitude = -0.1523 beta

 Excited state  41: excitation energy (eV) =    4.5347
 Total energy for state 41:                 -3552.34216557 au
    <S**2>     :  9.6464
    Trans. Mom.:  0.1007 X   0.2073 Y   0.0914 Z
    Strength   :     0.0068297382
    S(    5) --> V(    1) amplitude =  0.3444 alpha
    S(    5) --> V(    4) amplitude = -0.2924 alpha
    S(    5) --> V(    6) amplitude =  0.2051 alpha
    D(  171) --> S(    2) amplitude = -0.1748 beta
    D(  171) --> S(    3) amplitude =  0.2020 beta
    D(  172) --> S(    3) amplitude =  0.1901 beta
    D(  173) --> S(    3) amplitude = -0.2186 beta
    D(  177) --> S(    3) amplitude = -0.1903 beta
    D(  187) --> S(    5) amplitude =  0.1807 beta

 Excited state  42: excitation energy (eV) =    4.5708
 Total energy for state 42:                 -3552.34084099 au
    <S**2>     :  8.8436
    Trans. Mom.:  0.2483 X   0.1167 Y   0.2891 Z
    Strength   :     0.0177883747
    S(    3) --> V(   10) amplitude =  0.1700 alpha
    D(  170) --> S(    3) amplitude =  0.1505 beta
    D(  171) --> S(    1) amplitude = -0.2743 beta
    D(  171) --> S(    2) amplitude =  0.1733 beta
    D(  171) --> S(    3) amplitude = -0.3134 beta
    D(  172) --> S(    2) amplitude =  0.4255 beta
    D(  173) --> S(    3) amplitude =  0.2051 beta
    D(  187) --> S(    5) amplitude =  0.3244 beta

 Excited state  43: excitation energy (eV) =    4.5837
 Total energy for state 43:                 -3552.34036597 au
    <S**2>     :  9.2858
    Trans. Mom.:  0.2282 X   0.1302 Y   0.0480 Z
    Strength   :     0.0080098962
    D(  188) --> S(    4) amplitude =  0.1586 beta
    D(  188) --> V(    3) amplitude = -0.2259 beta
    D(  189) --> S(    4) amplitude =  0.4080 beta
    D(  189) --> S(    5) amplitude = -0.2347 beta
    D(  189) --> V(    1) amplitude = -0.2323 beta
    D(  189) --> V(    3) amplitude = -0.3616 beta
    D(  189) --> V(    6) amplitude =  0.1765 beta
    D(  189) --> V(    7) amplitude = -0.1691 beta
    D(  189) --> V(   10) amplitude =  0.1672 beta

 Excited state  44: excitation energy (eV) =    4.5945
 Total energy for state 44:                 -3552.33996837 au
    <S**2>     : 10.1132
    Trans. Mom.: -0.1714 X   0.0017 Y  -0.0080 Z
    Strength   :     0.0033130439
    S(    4) --> V(    1) amplitude =  0.5057 alpha
    S(    4) --> V(    2) amplitude =  0.2604 alpha
    S(    4) --> V(    3) amplitude = -0.1576 alpha
    S(    4) --> V(    6) amplitude =  0.2555 alpha
    S(    4) --> V(    7) amplitude =  0.2045 alpha
    S(    4) --> V(    9) amplitude =  0.2394 alpha
    S(    4) --> V(   10) amplitude =  0.2004 alpha
    S(    5) --> V(    1) amplitude = -0.1910 alpha
    D(  188) --> S(    4) amplitude = -0.1612 beta

 Excited state  45: excitation energy (eV) =    4.5999
 Total energy for state 45:                 -3552.33976986 au
    <S**2>     :  8.9439
    Trans. Mom.: -0.3070 X  -0.0158 Y  -0.2426 Z
    Strength   :     0.0172804646
    D(  171) --> S(    1) amplitude = -0.1564 beta
    D(  171) --> S(    3) amplitude = -0.1836 beta
    D(  172) --> S(    2) amplitude =  0.1924 beta
    D(  172) --> S(    3) amplitude =  0.4459 beta
    D(  173) --> S(    3) amplitude = -0.1864 beta
    D(  177) --> S(    3) amplitude = -0.2916 beta
    D(  187) --> S(    5) amplitude = -0.2907 beta

 Excited state  46: excitation energy (eV) =    4.6134
 Total energy for state 46:                 -3552.33927390 au
    <S**2>     :  8.8916
    Trans. Mom.: -0.0052 X   0.0078 Y  -0.1331 Z
    Strength   :     0.0020119554
    D(  168) --> S(    2) amplitude =  0.1632 beta
    D(  170) --> S(    2) amplitude =  0.2323 beta
    D(  171) --> S(    1) amplitude = -0.1502 beta
    D(  171) --> S(    2) amplitude = -0.5557 beta
    D(  171) --> S(    3) amplitude = -0.1874 beta
    D(  172) --> S(    1) amplitude =  0.2806 beta
    D(  173) --> S(    2) amplitude =  0.2620 beta

 Excited state  47: excitation energy (eV) =    4.6480
 Total energy for state 47:                 -3552.33800214 au
    <S**2>     :  9.2209
    Trans. Mom.: -0.1983 X   0.0381 Y   0.0589 Z
    Strength   :     0.0050390094
    S(    4) --> V(    1) amplitude =  0.1502 alpha
    D(  188) --> S(    4) amplitude =  0.4749 beta
    D(  188) --> S(    5) amplitude = -0.1914 beta
    D(  188) --> V(    2) amplitude = -0.3095 beta
    D(  188) --> V(    6) amplitude =  0.1959 beta
    D(  188) --> V(    8) amplitude =  0.1892 beta
    D(  189) --> S(    4) amplitude = -0.2533 beta
    D(  189) --> V(    2) amplitude =  0.1893 beta

 Excited state  48: excitation energy (eV) =    4.6756
 Total energy for state 48:                 -3552.33698736 au
    <S**2>     :  8.8365
    Trans. Mom.:  0.0381 X  -0.1811 Y  -0.0115 Z
    Strength   :     0.0039389021
    D(  168) --> S(    1) amplitude =  0.1720 beta
    D(  170) --> S(    1) amplitude =  0.2513 beta
    D(  170) --> S(    3) amplitude = -0.1775 beta
    D(  171) --> S(    1) amplitude = -0.5197 beta
    D(  171) --> S(    3) amplitude =  0.3557 beta
    D(  177) --> S(    1) amplitude = -0.1783 beta

 Excited state  49: excitation energy (eV) =    4.7621
 Total energy for state 49:                 -3552.33380883 au
    <S**2>     : 10.2491
    Trans. Mom.: -0.1172 X   0.1564 Y   0.2490 Z
    Strength   :     0.0116897179
    D(  184) --> V(    3) amplitude = -0.1527 alpha
    S(    2) --> V(   22) amplitude = -0.2546 alpha
    D(  186) --> V(   22) amplitude = -0.1740 beta

 Excited state  50: excitation energy (eV) =    4.7741
 Total energy for state 50:                 -3552.33336877 au
    <S**2>     : 10.2951
    Trans. Mom.: -0.0960 X  -0.2190 Y   0.0647 Z
    Strength   :     0.0071773320
    S(    1) --> V(   21) amplitude = -0.2809 alpha
    S(    1) --> V(   24) amplitude = -0.1969 alpha
    D(  185) --> V(   21) amplitude = -0.2086 beta
    D(  185) --> V(   24) amplitude = -0.1507 beta
    D(  186) --> V(   24) amplitude = -0.1739 beta

 Excited state  51: excitation energy (eV) =    4.7804
 Total energy for state 51:                 -3552.33313797 au
    <S**2>     :  9.0454
    Trans. Mom.: -0.3738 X   0.0012 Y   0.5979 Z
    Strength   :     0.0582322053
    S(    4) --> V(   21) amplitude = -0.2397 alpha
    D(  171) --> S(    2) amplitude = -0.2311 beta
    D(  185) --> V(    1) amplitude = -0.1642 beta
    D(  188) --> V(   21) amplitude = -0.1849 beta
    D(  189) --> V(   24) amplitude =  0.1534 beta

 Excited state  52: excitation energy (eV) =    4.7909
 Total energy for state 52:                 -3552.33274972 au
    <S**2>     :  9.1337
    Trans. Mom.:  0.2530 X   0.5767 Y  -0.1761 Z
    Strength   :     0.0501993338
    S(    2) --> V(    2) amplitude = -0.1559 alpha
    S(    2) --> V(    3) amplitude =  0.1594 alpha
    S(    5) --> V(   22) amplitude =  0.1973 alpha
    D(  171) --> S(    3) amplitude =  0.3009 beta
    D(  186) --> V(    2) amplitude =  0.1588 beta
    D(  189) --> V(   22) amplitude = -0.1541 beta

 Excited state  53: excitation energy (eV) =    4.8180
 Total energy for state 53:                 -3552.33175598 au
    <S**2>     : 10.4756
    Trans. Mom.:  0.0426 X   0.1770 Y  -0.0487 Z
    Strength   :     0.0041916647
    D(  184) --> V(    2) amplitude = -0.2454 alpha
    D(  184) --> V(    3) amplitude =  0.2630 alpha
    D(  181) --> V(    2) amplitude = -0.2106 beta
    D(  181) --> V(    5) amplitude = -0.1564 beta

 Excited state  54: excitation energy (eV) =    4.8452
 Total energy for state 54:                 -3552.33075694 au
    <S**2>     :  9.9989
    Trans. Mom.:  0.0685 X  -0.0160 Y  -0.0828 Z
    Strength   :     0.0014007881
    D(  187) --> V(   10) amplitude =  0.2007 alpha
    S(    4) --> V(    5) amplitude =  0.2475 alpha
    S(    4) --> V(    6) amplitude = -0.1549 alpha
    S(    4) --> V(   10) amplitude =  0.5291 alpha
    S(    4) --> V(   12) amplitude = -0.3174 alpha
    S(    5) --> V(   10) amplitude = -0.1616 alpha

 Excited state  55: excitation energy (eV) =    4.8556
 Total energy for state 55:                 -3552.33037190 au
    <S**2>     : 10.4635
    Trans. Mom.: -0.0595 X  -0.0213 Y   0.0547 Z
    Strength   :     0.0008312288
    D(  183) --> V(    2) amplitude = -0.2221 alpha
    D(  183) --> V(    3) amplitude = -0.2059 alpha
    S(    1) --> V(   21) amplitude = -0.1615 alpha
    S(    4) --> V(   10) amplitude = -0.2665 alpha
    S(    4) --> V(   12) amplitude =  0.1540 alpha
    D(  178) --> V(    1) amplitude =  0.2137 beta
    D(  179) --> V(    1) amplitude =  0.1654 beta

 Excited state  56: excitation energy (eV) =    4.8969
 Total energy for state 56:                 -3552.32885397 au
    <S**2>     :  8.8419
    Trans. Mom.: -0.0381 X  -0.1955 Y  -0.6580 Z
    Strength   :     0.0567123405
    S(    3) --> V(   10) amplitude = -0.1616 alpha
    D(  187) --> V(    1) amplitude = -0.2376 beta
    D(  187) --> V(    5) amplitude = -0.2369 beta
    D(  187) --> V(    6) amplitude = -0.1986 beta
    D(  187) --> V(    8) amplitude = -0.3288 beta
    D(  187) --> V(    9) amplitude =  0.6384 beta

 Excited state  57: excitation energy (eV) =    4.9540
 Total energy for state 57:                 -3552.32675720 au
    <S**2>     :  9.9399
    Trans. Mom.: -0.0641 X  -0.0132 Y   0.0248 Z
    Strength   :     0.0005938596
    S(    4) --> V(    5) amplitude =  0.2051 alpha
    S(    5) --> V(    3) amplitude =  0.2127 alpha
    S(    5) --> V(    5) amplitude =  0.6241 alpha
    S(    5) --> V(    6) amplitude =  0.2861 alpha
    S(    5) --> V(    8) amplitude =  0.1963 alpha
    S(    5) --> V(    9) amplitude = -0.2177 alpha
    S(    5) --> V(   19) amplitude = -0.1931 alpha

 Excited state  58: excitation energy (eV) =    4.9665
 Total energy for state 58:                 -3552.32629778 au
    <S**2>     :  9.4014
    Trans. Mom.: -0.0559 X  -0.0426 Y   0.0747 Z
    Strength   :     0.0012803626
    D(  188) --> S(    5) amplitude = -0.1873 beta
    D(  188) --> V(    1) amplitude = -0.2535 beta
    D(  188) --> V(    4) amplitude = -0.2193 beta
    D(  188) --> V(    5) amplitude =  0.1837 beta
    D(  188) --> V(   15) amplitude =  0.3429 beta
    D(  188) --> V(   17) amplitude = -0.1958 beta
    D(  189) --> V(    1) amplitude =  0.1773 beta
    D(  189) --> V(    4) amplitude =  0.1726 beta
    D(  189) --> V(   15) amplitude = -0.2694 beta

 Excited state  59: excitation energy (eV) =    4.9883
 Total energy for state 59:                 -3552.32549658 au
    <S**2>     :  9.8689
    Trans. Mom.: -0.1287 X   0.0377 Y  -0.0086 Z
    Strength   :     0.0022080115
    S(    4) --> V(    5) amplitude = -0.1569 alpha
    D(  188) --> S(    5) amplitude =  0.1663 beta
    D(  188) --> V(    4) amplitude =  0.3667 beta
    D(  189) --> V(    1) amplitude = -0.1761 beta
    D(  189) --> V(    4) amplitude =  0.3959 beta
    D(  189) --> V(    5) amplitude =  0.1910 beta
    D(  189) --> V(    8) amplitude = -0.1552 beta

 Excited state  60: excitation energy (eV) =    4.9934
 Total energy for state 60:                 -3552.32530885 au
    <S**2>     :  9.9248
    Trans. Mom.:  0.0382 X  -0.1008 Y  -0.0306 Z
    Strength   :     0.0015373116
    D(  187) --> V(   10) amplitude = -0.1836 alpha
    S(    4) --> V(    4) amplitude =  0.1785 alpha
    S(    4) --> V(    5) amplitude =  0.2510 alpha
    S(    4) --> V(    6) amplitude = -0.1607 alpha
    D(  188) --> V(    1) amplitude = -0.1526 beta
    D(  189) --> S(    5) amplitude =  0.1635 beta
    D(  189) --> V(    4) amplitude =  0.4447 beta
    D(  189) --> V(    8) amplitude = -0.1662 beta

 Excited state  61: excitation energy (eV) =    5.0303
 Total energy for state 61:                 -3552.32395315 au
    <S**2>     : 10.6142
    Trans. Mom.: -0.0465 X  -0.0189 Y  -0.0381 Z
    Strength   :     0.0004893675
    D(  179) --> V(    2) amplitude = -0.2156 alpha
    D(  179) --> V(    3) amplitude = -0.2089 alpha
    D(  174) --> S(    1) amplitude =  0.1769 beta
    D(  174) --> V(    1) amplitude = -0.2518 beta
    D(  177) --> V(    1) amplitude =  0.1788 beta
    D(  178) --> V(    1) amplitude = -0.1520 beta
    D(  179) --> V(    1) amplitude =  0.1749 beta

 Excited state  62: excitation energy (eV) =    5.0348
 Total energy for state 62:                 -3552.32378704 au
    <S**2>     :  9.4013
    Trans. Mom.: -0.0908 X   0.0344 Y  -0.0579 Z
    Strength   :     0.0015782083
    S(    4) --> V(    1) amplitude =  0.1691 alpha
    S(    4) --> V(    2) amplitude = -0.1991 alpha
    S(    4) --> V(    4) amplitude =  0.2152 alpha
    S(    4) --> V(    5) amplitude =  0.2068 alpha
    S(    4) --> V(    6) amplitude = -0.1784 alpha
    S(    4) --> V(   10) amplitude = -0.2501 alpha
    S(    4) --> V(   11) amplitude =  0.1563 alpha
    S(    4) --> V(   12) amplitude =  0.2914 alpha
    D(  176) --> S(    2) amplitude = -0.1856 beta
    D(  176) --> S(    3) amplitude =  0.1541 beta
    D(  182) --> S(    5) amplitude = -0.1720 beta

 Excited state  63: excitation energy (eV) =    5.0595
 Total energy for state 63:                 -3552.32287805 au
    <S**2>     : 10.6836
    Trans. Mom.: -0.0255 X  -0.0298 Y  -0.0394 Z
    Strength   :     0.0003825571
    D(  178) --> V(    3) amplitude = -0.1549 alpha
    D(  180) --> V(    2) amplitude =  0.2441 alpha
    D(  180) --> V(    3) amplitude = -0.2592 alpha
    D(  173) --> S(    1) amplitude = -0.1507 beta
    D(  173) --> V(    2) amplitude =  0.1975 beta
    D(  177) --> V(    2) amplitude = -0.2368 beta
    D(  177) --> V(    5) amplitude = -0.1739 beta

 Excited state  64: excitation energy (eV) =    5.0750
 Total energy for state 64:                 -3552.32230929 au
    <S**2>     : 10.0723
    Trans. Mom.:  0.1430 X  -0.1232 Y  -0.0492 Z
    Strength   :     0.0047313490
    D(  187) --> V(   10) amplitude = -0.1543 alpha
    D(  188) --> S(    4) amplitude =  0.1542 beta
    D(  188) --> V(    2) amplitude =  0.1889 beta
    D(  188) --> V(    3) amplitude =  0.2946 beta
    D(  188) --> V(    4) amplitude =  0.1783 beta
    D(  188) --> V(   14) amplitude =  0.1742 beta
    D(  188) --> V(   15) amplitude =  0.2064 beta
    D(  188) --> V(   16) amplitude = -0.1673 beta
    D(  188) --> V(   19) amplitude =  0.2490 beta
    D(  189) --> V(    2) amplitude = -0.1652 beta
    D(  189) --> V(    3) amplitude = -0.1742 beta
    D(  189) --> V(   19) amplitude = -0.1777 beta

 Excited state  65: excitation energy (eV) =    5.1120
 Total energy for state 65:                 -3552.32095119 au
    <S**2>     :  9.6805
    Trans. Mom.: -0.2272 X  -0.0243 Y  -0.0904 Z
    Strength   :     0.0075603854
    S(    4) --> V(   10) amplitude =  0.1885 alpha
    S(    5) --> V(   10) amplitude =  0.7082 alpha
    S(    5) --> V(   12) amplitude = -0.4897 alpha

 Excited state  66: excitation energy (eV) =    5.1242
 Total energy for state 66:                 -3552.32050165 au
    <S**2>     :  9.2334
    Trans. Mom.:  0.8789 X   0.5137 Y   0.5439 Z
    Strength   :     0.1672385501
    S(    3) --> V(   10) amplitude =  0.1859 alpha
    D(  176) --> S(    1) amplitude = -0.2183 beta
    D(  176) --> S(    2) amplitude =  0.1697 beta
    D(  176) --> S(    3) amplitude = -0.2931 beta
    D(  176) --> S(    5) amplitude = -0.1874 beta
    D(  182) --> S(    5) amplitude = -0.1975 beta
    D(  186) --> S(    5) amplitude =  0.1826 beta
    D(  187) --> V(   15) amplitude = -0.1905 beta
    D(  187) --> V(   19) amplitude = -0.1549 beta

 Excited state  67: excitation energy (eV) =    5.1464
 Total energy for state 67:                 -3552.31968455 au
    <S**2>     :  9.1090
    Trans. Mom.:  0.6242 X   0.0036 Y   0.1893 Z
    Strength   :     0.0536420670
    D(  187) --> V(   10) amplitude = -0.2774 alpha
    D(  187) --> V(   12) amplitude =  0.1764 alpha
    S(    3) --> V(   10) amplitude =  0.1508 alpha
    S(    4) --> V(   10) amplitude =  0.1953 alpha
    D(  176) --> S(    1) amplitude =  0.1722 beta
    D(  176) --> S(    2) amplitude = -0.2474 beta
    D(  187) --> V(   15) amplitude = -0.2168 beta
    D(  187) --> V(   19) amplitude = -0.1615 beta
    D(  188) --> V(   15) amplitude = -0.1745 beta

 Excited state  68: excitation energy (eV) =    5.1528
 Total energy for state 68:                 -3552.31945009 au
    <S**2>     : 10.1595
    Trans. Mom.:  0.1038 X   0.0766 Y   0.0673 Z
    Strength   :     0.0026730175
    S(    5) --> V(    2) amplitude =  0.3387 alpha
    S(    5) --> V(    4) amplitude =  0.3244 alpha
    S(    5) --> V(    5) amplitude = -0.1505 alpha
    S(    5) --> V(    7) amplitude =  0.3435 alpha
    S(    5) --> V(    9) amplitude =  0.2199 alpha
    S(    5) --> V(   11) amplitude = -0.2197 alpha
    S(    5) --> V(   13) amplitude =  0.2553 alpha
    S(    5) --> V(   14) amplitude = -0.1569 alpha
    S(    5) --> V(   20) amplitude = -0.1505 alpha

 Excited state  69: excitation energy (eV) =    5.1645
 Total energy for state 69:                 -3552.31901955 au
    <S**2>     : 10.6686
    Trans. Mom.:  0.0551 X   0.0057 Y  -0.0224 Z
    Strength   :     0.0004520317
    D(  185) --> V(   32) amplitude = -0.2575 alpha
    D(  185) --> V(   37) amplitude = -0.1603 alpha
    S(    4) --> V(    5) amplitude =  0.2149 alpha
    D(  180) --> V(   32) amplitude =  0.1657 beta
    D(  182) --> V(   32) amplitude = -0.1638 beta

 Excited state  70: excitation energy (eV) =    5.1771
 Total energy for state 70:                 -3552.31855871 au
    <S**2>     :  9.0911
    Trans. Mom.:  0.4751 X   0.0430 Y   0.1002 Z
    Strength   :     0.0301326875
    D(  186) --> S(    5) amplitude = -0.2394 beta
    D(  188) --> V(    1) amplitude =  0.1723 beta
    D(  188) --> V(    3) amplitude = -0.1944 beta
[...]
 -0.5844  -0.5714  -0.5633  -0.5623  -0.5559  -0.5542  -0.5514  -0.5474
 -0.5462  -0.5397  -0.5345  -0.5324  -0.5282  -0.5264  -0.5211  -0.5203
 -0.5172  -0.5158  -0.5108  -0.5079  -0.5037  -0.5027  -0.4998  -0.4957
 -0.4882  -0.4846  -0.4829  -0.4795  -0.4773  -0.4751  -0.4732  -0.4714
 -0.4699  -0.4687  -0.4645  -0.4625  -0.4583  -0.4572  -0.4538  -0.4476
 -0.4461  -0.4404  -0.4364  -0.4318  -0.4306  -0.4294  -0.4217  -0.4176
 -0.4158  -0.4152  -0.4130  -0.4082  -0.4041  -0.4003  -0.3995  -0.3928
 -0.3919  -0.3911  -0.3865  -0.3847  -0.3825  -0.3770  -0.3753  -0.3682
 -0.3662  -0.3609  -0.3506  -0.3407  -0.3342  -0.3329  -0.3277  -0.3245
 -0.3226  -0.3187  -0.3178  -0.3146  -0.3134  -0.3109  -0.2884  -0.2802
 -0.2757  -0.2723  -0.2613  -0.2274  -0.2261
 -- Virtual --
 -0.0272  -0.0239  -0.0214   0.0131   0.0143   0.0164   0.0170   0.0184
  0.0204   0.0221   0.0241   0.0257   0.0265   0.0284   0.0322   0.0325
  0.0343   0.0359   0.0384   0.0422   0.0424   0.0436   0.0453   0.0462
  0.0482   0.0521   0.0534   0.0553   0.0579   0.0585   0.0603   0.0609
  0.0632   0.0644   0.0660   0.0668   0.0682   0.0703   0.0727   0.0733
  0.0755   0.0779   0.0798   0.0818   0.0835   0.0846   0.0865   0.0877
  0.0892   0.0905   0.0927   0.0962   0.0969   0.0984   0.1001   0.1011
  0.1034   0.1050   0.1055   0.1078   0.1089   0.1103   0.1117   0.1120
  0.1126   0.1145   0.1160   0.1168   0.1176   0.1209   0.1224   0.1231
  0.1238   0.1242   0.1273   0.1287   0.1303   0.1309   0.1323   0.1327
  0.1350   0.1356   0.1378   0.1385   0.1396   0.1411   0.1430   0.1445
  0.1455   0.1463   0.1472   0.1477   0.1500   0.1507   0.1516   0.1529
  0.1544   0.1556   0.1571   0.1583   0.1590   0.1601   0.1615   0.1631
  0.1636   0.1645   0.1667   0.1671   0.1682   0.1692   0.1723   0.1749
  0.1751   0.1769   0.1784   0.1802   0.1803   0.1826   0.1831   0.1835
  0.1854   0.1869   0.1878   0.1885   0.1893   0.1916   0.1936   0.1946
  0.1955   0.1967   0.2006   0.2009   0.2016   0.2039   0.2043   0.2057
  0.2072   0.2096   0.2105   0.2119   0.2136   0.2151   0.2163   0.2187
  0.2191   0.2206   0.2218   0.2228   0.2247   0.2267   0.2278   0.2289
  0.2307   0.2321   0.2334   0.2344   0.2359   0.2376   0.2392   0.2404
  0.2423   0.2426   0.2439   0.2456   0.2466   0.2480   0.2500   0.2508
  0.2515   0.2539   0.2546   0.2553   0.2564   0.2572   0.2593   0.2602
  0.2609   0.2620   0.2635   0.2646   0.2652   0.2667   0.2675   0.2691
  0.2710   0.2718   0.2734   0.2741   0.2746   0.2750   0.2768   0.2787
  0.2789   0.2793   0.2813   0.2819   0.2844   0.2864   0.2868   0.2877
  0.2895   0.2900   0.2912   0.2926   0.2930   0.2936   0.2947   0.2960
  0.2970   0.2984   0.3003   0.3010   0.3037   0.3044   0.3060   0.3074
  0.3086   0.3113   0.3114   0.3124   0.3141   0.3155   0.3159   0.3165
  0.3198   0.3201   0.3219   0.3230   0.3246   0.3264   0.3271   0.3291
  0.3297   0.3309   0.3329   0.3344   0.3351   0.3357   0.3370   0.3385
  0.3389   0.3414   0.3429   0.3433   0.3454   0.3460   0.3475   0.3493
  0.3494   0.3503   0.3513   0.3536   0.3537   0.3557   0.3569   0.3599
  0.3601   0.3608   0.3622   0.3639   0.3647   0.3675   0.3682   0.3696
  0.3726   0.3736   0.3741   0.3756   0.3763   0.3777   0.3808   0.3815
  0.3824   0.3833   0.3842   0.3875   0.3885   0.3904   0.3917   0.3933
  0.3945   0.3954   0.3964   0.3965   0.4003   0.4022   0.4036   0.4054
  0.4061   0.4078   0.4087   0.4107   0.4118   0.4129   0.4131   0.4150
  0.4175   0.4187   0.4209   0.4231   0.4232   0.4242   0.4251   0.4287
  0.4293   0.4294   0.4313   0.4321   0.4337   0.4357   0.4367   0.4384
  0.4400   0.4409   0.4433   0.4444   0.4463   0.4477   0.4485   0.4506
  0.4532   0.4543   0.4566   0.4572   0.4583   0.4599   0.4618   0.4624
  0.4666   0.4672   0.4696   0.4716   0.4723   0.4734   0.4745   0.4761
  0.4774   0.4785   0.4815   0.4828   0.4833   0.4845   0.4859   0.4879
  0.4889   0.4905   0.4918   0.4931   0.4953   0.4965   0.4971   0.4989
  0.4995   0.5018   0.5047   0.5072   0.5085   0.5103   0.5127   0.5132
  0.5144   0.5158   0.5183   0.5195   0.5221   0.5231   0.5245   0.5249
  0.5260   0.5307   0.5313   0.5320   0.5333   0.5355   0.5375   0.5409
  0.5425   0.5438   0.5451   0.5476   0.5489   0.5530   0.5545   0.5550
  0.5558   0.5567   0.5582   0.5594   0.5617   0.5653   0.5670   0.5693
  0.5702   0.5710   0.5724   0.5735   0.5748   0.5766   0.5779   0.5797
  0.5817   0.5832   0.5847   0.5879   0.5888   0.5892   0.5914   0.5926
  0.5948   0.5967   0.5981   0.6005   0.6025   0.6031   0.6039   0.6059
  0.6086   0.6096   0.6112   0.6139   0.6152   0.6158   0.6172   0.6189
  0.6200   0.6224   0.6233   0.6251   0.6272   0.6288   0.6294   0.6312
  0.6325   0.6350   0.6362   0.6392   0.6401   0.6415   0.6433   0.6457
  0.6465   0.6493   0.6502   0.6508   0.6547   0.6551   0.6559   0.6577
  0.6599   0.6621   0.6648   0.6651   0.6674   0.6676   0.6697   0.6718
  0.6725   0.6752   0.6773   0.6787   0.6802   0.6810   0.6829   0.6833
  0.6848   0.6852   0.6892   0.6899   0.6912   0.6924   0.6959   0.6974
  0.6988   0.7004   0.7020   0.7042   0.7057   0.7059   0.7071   0.7098
  0.7112   0.7125   0.7130   0.7150   0.7177   0.7196   0.7212   0.7218
  0.7243   0.7268   0.7278   0.7284   0.7311   0.7313   0.7324   0.7335
  0.7347   0.7358   0.7396   0.7411   0.7419   0.7448   0.7460   0.7462
  0.7490   0.7508   0.7519   0.7547   0.7560   0.7573   0.7593   0.7622
  0.7629   0.7645   0.7657   0.7685   0.7700   0.7707   0.7737   0.7744
  0.7756   0.7775   0.7776   0.7793   0.7817   0.7832   0.7839   0.7883
  0.7886   0.7909   0.7921   0.7934   0.7966   0.7968   0.7990   0.7996
  0.8021   0.8042   0.8050   0.8070   0.8074   0.8088   0.8113   0.8126
  0.8135   0.8157   0.8184   0.8213   0.8223   0.8240   0.8246   0.8264
  0.8267   0.8291   0.8314   0.8320   0.8331   0.8364   0.8381   0.8407
  0.8429   0.8439   0.8453   0.8489   0.8503   0.8513   0.8528   0.8551
  0.8567   0.8586   0.8602   0.8617   0.8647   0.8655   0.8675   0.8702
  0.8716   0.8743   0.8749   0.8766   0.8773   0.8796   0.8804   0.8835
  0.8865   0.8881   0.8902   0.8925   0.8941   0.8959   0.8966   0.8969
  0.9023   0.9035   0.9062   0.9074   0.9092   0.9123   0.9123   0.9151
  0.9182   0.9196   0.9204   0.9237   0.9249   0.9259   0.9287   0.9310
  0.9347   0.9370   0.9403   0.9411   0.9447   0.9450   0.9480   0.9503
  0.9516   0.9540   0.9561   0.9580   0.9606   0.9615   0.9634   0.9659
  0.9664   0.9688   0.9709   0.9725   0.9746   0.9811   0.9836   0.9845
  0.9878   0.9896   0.9934   0.9956   0.9977   0.9989   1.0028   1.0073
  1.0112   1.0115   1.0154   1.0168   1.0189   1.0207   1.0230   1.0269
  1.0286   1.0344   1.0361   1.0398   1.0413   1.0441   1.0456   1.0510
  1.0523   1.0538   1.0555   1.0591   1.0606   1.0627   1.0670   1.0689
  1.0716   1.0733   1.0745   1.0794   1.0813   1.0862   1.0881   1.0908
  1.0942   1.0967   1.0980   1.1006   1.1040   1.1060   1.1075   1.1122
  1.1134   1.1175   1.1209   1.1242   1.1244   1.1301   1.1305   1.1329
  1.1364   1.1415   1.1439   1.1445   1.1484   1.1534   1.1556   1.1594
  1.1614   1.1627   1.1664   1.1670   1.1717   1.1744   1.1764   1.1787
  1.1814   1.1840   1.1887   1.1939   1.1945   1.1986   1.1998   1.2036
  1.2062   1.2105   1.2122   1.2160   1.2187   1.2221   1.2230   1.2274
  1.2315   1.2349   1.2374   1.2389   1.2419   1.2476   1.2500   1.2525
  1.2553   1.2597   1.2614   1.2646   1.2673   1.2678   1.2745   1.2792
  1.2814   1.2830   1.2845   1.2909   1.2913   1.2957   1.2997   1.3022
  1.3055   1.3073   1.3121   1.3134   1.3195   1.3222   1.3235   1.3269
  1.3294   1.3329   1.3378   1.3393   1.3416   1.3463   1.3487   1.3516
  1.3536   1.3561   1.3618   1.3623   1.3630   1.3682   1.3708   1.3771
  1.3794   1.3878   1.3904   1.3919   1.3966   1.3976   1.3991   1.4030
  1.4054   1.4087   1.4123   1.4155   1.4184   1.4220   1.4236   1.4287
  1.4324   1.4382   1.4404   1.4449   1.4466   1.4495   1.4512   1.4574
  1.4581   1.4629   1.4649   1.4674   1.4698   1.4708   1.4729   1.4761
  1.4794   1.4861   1.4880   1.4915   1.4948   1.4955   1.5029   1.5063
  1.5106   1.5117   1.5152   1.5204   1.5233   1.5260   1.5277   1.5314
  1.5338   1.5403   1.5429   1.5471   1.5476   1.5483   1.5516   1.5570
  1.5584   1.5593   1.5624   1.5685   1.5709   1.5739   1.5749   1.5779
  1.5801   1.5851   1.5885   1.5892   1.5925   1.5935   1.6003   1.6014
  1.6049   1.6075   1.6104   1.6132   1.6179   1.6217   1.6242   1.6253
  1.6292   1.6307   1.6334   1.6394   1.6423   1.6443   1.6474   1.6492
  1.6511   1.6557   1.6595   1.6635   1.6658   1.6697   1.6725   1.6749
  1.6773   1.6795   1.6807   1.6847   1.6863   1.6918   1.6933   1.6949
  1.6990   1.7006   1.7079   1.7090   1.7120   1.7138   1.7175   1.7209
  1.7236   1.7253   1.7282   1.7293   1.7354   1.7372   1.7393   1.7427
  1.7442   1.7464   1.7482   1.7540   1.7546   1.7584   1.7594   1.7644
  1.7679   1.7689   1.7703   1.7751   1.7774   1.7787   1.7852   1.7871
  1.7882   1.7928   1.7942   1.7969   1.8008   1.8013   1.8046   1.8058
  1.8092   1.8130   1.8154   1.8207   1.8235   1.8265   1.8288   1.8335
  1.8337   1.8365   1.8395   1.8424   1.8462   1.8495   1.8506   1.8546
  1.8590   1.8598   1.8614   1.8644   1.8666   1.8691   1.8721   1.8768
  1.8773   1.8786   1.8836   1.8872   1.8912   1.8942   1.8956   1.8999
  1.9024   1.9057   1.9065   1.9106   1.9127   1.9187   1.9214   1.9234
  1.9257   1.9282   1.9315   1.9352   1.9379   1.9401   1.9430   1.9443
  1.9488   1.9513   1.9549   1.9553   1.9573   1.9585   1.9655   1.9662
  1.9707   1.9762   1.9799   1.9816   1.9850   1.9862   1.9899   1.9915
  1.9922   1.9935   1.9945   1.9982   2.0060   2.0068   2.0100   2.0112
  2.0154   2.0180   2.0227   2.0247   2.0279   2.0319   2.0350   2.0370
  2.0375   2.0404   2.0427   2.0461   2.0485   2.0518   2.0545   2.0568
  2.0600   2.0617   2.0642   2.0702   2.0708   2.0726   2.0751   2.0796
  2.0808   2.0844   2.0870   2.0878   2.0905   2.0926   2.0960   2.0978
  2.1019   2.1036   2.1087   2.1107   2.1149   2.1178   2.1208   2.1228
  2.1256   2.1297   2.1322   2.1350   2.1376   2.1398   2.1424   2.1442
  2.1461   2.1499   2.1513   2.1538   2.1552   2.1604   2.1668   2.1693
  2.1709   2.1733   2.1756   2.1802   2.1811   2.1852   2.1899   2.1917
  2.1945   2.1973   2.2004   2.2035   2.2057   2.2090   2.2107   2.2156
  2.2197   2.2211   2.2231   2.2254   2.2277   2.2319   2.2370   2.2387
  2.2403   2.2429   2.2471   2.2582   2.2595   2.2622   2.2637   2.2687
  2.2721   2.2746   2.2814   2.2856   2.2890   2.2915   2.2949   2.2962
  2.3003   2.3034   2.3090   2.3104   2.3133   2.3147   2.3193   2.3217
  2.3261   2.3305   2.3343   2.3376   2.3414   2.3434   2.3501   2.3530
  2.3575   2.3615   2.3642   2.3665   2.3707   2.3775   2.3787   2.3823
  2.3834   2.3910   2.3959   2.3975   2.4054   2.4062   2.4114   2.4152
  2.4172   2.4244   2.4269   2.4323   2.4360   2.4386   2.4419   2.4446
  2.4466   2.4505   2.4542   2.4563   2.4606   2.4653   2.4696   2.4728
  2.4748   2.4780   2.4840   2.4888   2.4927   2.5019   2.5042   2.5126
  2.5195   2.5255   2.5332   2.5348   2.5376   2.5393   2.5402   2.5461
  2.5487   2.5535   2.5604   2.5623   2.5675   2.5716   2.5769   2.5839
  2.5860   2.5868   2.5920   2.5957   2.5996   2.6024   2.6088   2.6124
  2.6165   2.6211   2.6260   2.6275   2.6356   2.6396   2.6438   2.6492
  2.6496   2.6564   2.6612   2.6623   2.6654   2.6827   2.6882   2.6905
  2.6959   2.6983   2.7026   2.7090   2.7131   2.7142   2.7162   2.7193
  2.7242   2.7279   2.7374   2.7426   2.7460   2.7514   2.7544   2.7610
  2.7613   2.7665   2.7710   2.7717   2.7723   2.7780   2.7827   2.7896
  2.7917   2.8040   2.8066   2.8105   2.8141   2.8201   2.8310   2.8386
  2.8431   2.8488   2.8532   2.8546   2.8560   2.8642   2.8697   2.8729
  2.8820   2.8905   2.8950   2.8992   2.9031   2.9081   2.9109   2.9126
  2.9189   2.9267   2.9288   2.9352   2.9398   2.9458   2.9541   2.9551
  2.9626   2.9712   2.9781   2.9909   2.9940   3.0039   3.0167   3.0206
  3.0255   3.0278   3.0306   3.0392   3.0542   3.0656   3.0783   3.0847
  3.0928   3.0973   3.1047   3.1121   3.1249   3.1339   3.1484   3.1564
  3.1730   3.1811   3.1845   3.2039   3.2173   3.2330   3.2411   3.2468
  3.2664   3.2886   3.2996   3.3013   3.3293   3.3379   3.3501   3.3671
  3.3715   3.3799   3.3888   3.3941   3.4102   3.4272   3.4426   3.4509
  3.4637   3.4670   3.4840   3.4880   3.4912   3.5479   3.5497   3.5593
  3.5661   3.5724   3.5734   3.5774   3.5984   3.6011   3.6048   3.6098
  3.6286   3.6326   3.6420   3.6469   3.6490   3.6554   3.6630   3.6691
  3.6825   3.6956   3.7058   3.7104   3.7155   3.7366   3.7445   3.7514
  3.7596   3.7627   3.7660   3.7741   3.7946   3.8028   3.8110   3.8191
  3.8262   3.8396   3.8477   3.8502   3.8686   3.8733   3.8799   3.8931
  3.9071   3.9130   3.9254   3.9354   3.9769   3.9833   4.0028   4.0135
  4.0200   4.0564   4.0579   4.0803   4.0811   4.1058   4.1223   4.1798
  4.1846   4.2004   4.2421   4.3434   4.3729   4.3983   4.5143   4.6048
  4.6763   4.7192   4.7385   4.8819
 --------------------------------------------------------------
 
          Ground-State Mulliken Net Atomic Charges

     Atom                 Charge (a.u.)    Spin (a.u.)
  --------------------------------------------------------
      1 C                     0.511076      -0.015819
      2 C                     1.183416       0.024098
      3 C                     1.595574       0.011781
      4 C                     0.894685      -0.004606
      5 C                     0.585379       0.018580
      6 C                     0.453320      -0.018608
      7 H                    -1.236517       0.000536
      8 O                    -1.047645       0.141311
      9 C                    -0.050266      -0.003099
     10 O                    -0.835106       0.001785
     11 N                    -0.064121       0.000037
     12 H                    -0.105803      -0.000372
     13 C                     1.214340       0.000122
     14 H                    -0.431738       0.000029
     15 H                    -0.538107       0.000029
     16 C                     1.589518       0.000067
     17 H                    -0.507547       0.000003
     18 H                    -1.177688      -0.000285
     19 N                    -0.599956      -0.000027
     20 H                     0.019330      -0.000005
     21 C                     1.221681      -0.000120
     22 H                    -0.459642      -0.000031
     23 H                    -0.502043      -0.000013
     24 C                     1.280831       0.000195
     25 H                    -0.506774       0.000009
     26 H                    -0.597798       0.000119
     27 C                     1.246799       0.000276
     28 H                    -0.586118       0.000012
     29 H                    -0.509258      -0.000025
     30 C                     1.576153      -0.000105
     31 H                    -0.878723      -0.000901
     32 N                     0.038180       0.004684
     33 H                    -0.138163       0.000834
     34 C                    -1.200599      -0.006682
     35 O                    -0.388285       0.082251
     36 C                     3.132383       0.028768
     37 H                    -1.431926      -0.000681
     38 C                     1.003117       0.013525
     39 H                    -0.442815       0.000332
     40 H                    -0.661308      -0.000267
     41 C                     0.831762      -0.001906
     42 O                    -0.937718       0.000011
     43 N                     0.281391      -0.000261
     44 C                     1.485844      -0.000084
     45 H                     0.031607       0.002441
     46 C                     1.477870       0.000208
     47 H                    -0.514380      -0.000038
     48 H                    -0.694165      -0.000017
     49 C                     1.111673      -0.000177
     50 H                    -0.562420      -0.000043
     51 H                    -0.989993      -0.000022
     52 C                     1.025680       0.000067
     53 H                    -0.597815       0.000006
     54 H                    -0.531681      -0.000334
     55 H                    -0.477527       0.000010
     56 H                    -0.598019       0.000001
     57 C                    -0.554078      -0.002524
     58 C                     0.883322      -0.005112
     59 O                    -0.902495       0.001628
     60 C                     1.974839       0.012742
     61 C                     0.412579       0.020657
     62 C                     1.924798       0.026681
     63 C                     0.328271      -0.019240
     64 C                    -0.454816      -0.014368
     65 H                    -1.647029       0.001756
     66 O                    -1.005423       0.138090
     67 C                    -0.710143      -0.017209
     68 O                    -0.950766       0.078014
     69 H                    -1.055461      -0.000559
     70 O                    -0.984293       0.139605
     71 H                    -1.095223      -0.000386
     72 O                    -1.159850       0.127901
     73 Fe                    2.258574       4.234759
     74 N                    -0.177471       0.000017
     75 H                    -0.064467       0.000007
     76 N                     0.278423       0.000078
     77 H                    -0.079719      -0.000285
     78 C                     1.071812      -0.000183
     79 H                    -0.470027      -0.000026
     80 H                    -0.615661       0.000014
     81 C                     1.209487       0.000078
     82 H                    -0.470385       0.000026
     83 H                    -0.404362      -0.000013
     84 C                     1.583115      -0.000029
     85 H                    -0.651459       0.000029
     86 H                    -0.801103       0.000113
     87 H                    -1.150029      -0.000058
     88 H                    -1.155396       0.000019
     89 H                    -0.563188       0.000263
     90 C                     1.197822      -0.000097
     91 H                    -0.524539       0.000025
     92 H                    -0.465608      -0.000016
  --------------------------------------------------------
  Sum of atomic charges =    -2.000000
  Sum of spin   charges =     5.000000

 -----------------------------------------------------------------
                    Cartesian Multipole Moments
 -----------------------------------------------------------------
    Charge (ESU x 10^10)
                -9.6064
    Dipole Moment (Debye)
         X      -0.9742      Y      18.6343      Z      20.0480
       Tot      27.3881
    Quadrupole Moments (Debye-Ang)
        XX    -467.7028     XY      48.3274     YY    -365.1446
        XZ      20.5189     YZ      -2.4145     ZZ    -333.3277
    Octopole Moments (Debye-Ang^2)
       XXX     258.0241    XXY     576.6918    XYY      41.9289
       YYY     196.1755    XXZ     515.7811    XYZ    -131.6125
       YYZ     312.5671    XZZ     -80.4209    YZZ      67.6635
       ZZZ     666.6835
    Hexadecapole Moments (Debye-Ang^3)
      XXXX  -57082.6747   XXXY    2445.3012   XXYY   -9891.3166
      XYYY     172.7024   YYYY   -6655.5107   XXXZ    2954.1350
      XXYZ   -1062.6829   XYYZ     553.2411   YYYZ    -525.4920
      XXZZ   -8898.1528   XYZZ     553.7905   YYZZ   -2277.6284
      XZZZ    1294.9939   YZZZ    -669.6176   ZZZZ   -6322.0533
 -----------------------------------------------------------------
 Total job time:  772839.24s(wall), 10767076.48s(cpu) 
 Sun Jun  2 11:53:43 2024

        *************************************************************
        *                                                           *
        *  Thank you very much for using Q-Chem.  Have a nice day.  *
        *                                                           *
        *************************************************************


