
Running Job 1 of 1 C_FePBstar_enol_L_ccL_3sextet_b3lypD3bj_ccpVDZ_pcmH2O_opt_2.in
qchem C_FePBstar_enol_L_ccL_3sextet_b3lypD3bj_ccpVDZ_pcmH2O_opt_2.in_3109498.0 /data/scratch/C_FePBstar_enol_L_ccL_3sextet_b3lypD3bj_ccpVDZ_pcmH2O_opt_220240128135412/ 0
/opt/qchem/6.0.1/exe/qcprog.exe_s C_FePBstar_enol_L_ccL_3sextet_b3lypD3bj_ccpVDZ_pcmH2O_opt_2.in_3109498.0 /data/scratch/C_FePBstar_enol_L_ccL_3sextet_b3lypD3bj_ccpVDZ_pcmH2O_opt_220240128135412/
                  Welcome to Q-Chem
     A Quantum Leap Into The Future Of Chemistry


 Q-Chem 6.0, Q-Chem, Inc., Pleasanton, CA (2022)

 E. Epifanovsky,  A. T. B. Gilbert,  Xintian Feng,  Joonho Lee,  Yuezhi Mao,  
 N. Mardirossian,  P. Pokhilko,  A. White,  M. Wormit,  M. P. Coons,  
 A. L. Dempwolff,  Zhengting Gan,  D. Hait,  P. R. Horn,  L. D. Jacobson,  
 I. Kaliman,  J. Kussmann,  A. W. Lange,  Ka Un Lao,  D. S. Levine,  Jie Liu,  
 S. C. McKenzie,  A. F. Morrison,  K. Nanda,  F. Plasser,  D. R. Rehn,  
 M. L. Vidal,  Zhi-Qiang You,  Ying Zhu,  B. Alam,  B. Albrecht,  
 A. Aldossary,  E. Alguire,  J. H. Andersen,  V. Athavale,  D. Barton,  
 K. Begam,  A. Behn,  N. Bellonzi,  Y. A. Bernard,  E. J. Berquist,  
 H. Burton,  A. Carreras,  K. Carter-Fenk,  Romit Chakraborty,  
 Chandrima Chakravarty,  Junhan Chen,  A. D. Chien,  K. D. Closser,  
 V. Cofer-Shabica,  L. Cunha,  S. Dasgupta,  Jia Deng,  M. de Wergifosse,  
 M. Diedenhofen,  Hainam Do,  S. Ehlert,  Po-Tung Fang,  S. Fatehi,  
 Qingguo Feng,  T. Friedhoff,  B. Ganoe,  J. Gayvert,  Qinghui Ge,  
 G. Gidofalvi,  M. Goldey,  J. Gomes,  C. Gonzalez-Espinoza,  S. Gulania,  
 A. Gunina,  J. A. Gyamfi,  M. W. D. Hanson-Heine,  P. H. P. Harbach,  
 A. W. Hauser,  M. F. Herbst,  M. Hernandez Vera,  M. Hodecker,  
 Z. C. Holden,  S. Houck,  Xunkun Huang,  Kerwin Hui,  B. C. Huynh,  
 K. Ikeda,  M. Ivanov,  Hyunjun Ji,  Zuxin Jin,  Hanjie Jiang,  B. Kaduk,  
 S. Kaehler,  R. Kang,  K. Khistyaev,  Jaehoon Kim,  Yongbin Kim,  
 P. Klunzinger,  Z. Koczor-Benda,  Joong Hoon Koh,  D. Kosenkov,  
 Saikiran Kotaru,  L. Koulias,  T. Kowalczyk,  C. M. Krauter,  K. Kue,  
 A. Kunitsa,  T. Kus,  A. Landau,  K. V. Lawler,  D. Lefrancois,  S. Lehtola,  
 Rain Li,  Shaozhi Li,  Yi-Pei Li,  Jiashu Liang,  M. Liebenthal,  
 Hung-Hsuan Lin,  You-Sheng Lin,  Fenglai Liu,  Kuan-Yu Liu,  
 M. Loipersberger,  A. Luenser,  C. Malbon,  A. Manjanath,  P. Manohar,  
 E. Mansoor,  S. F. Manzer,  Shan-Ping Mao,  A. V. Marenich,  T. Markovich,  
 S. Mason,  F. Matz,  S. A. Maurer,  P. F. McLaughlin,  M. F. S. J. Menger,  
 J.-M. Mewes,  S. A. Mewes,  P. Morgante,  Mohammad Mostafanejad,  
 J. W. Mullinax,  K. J. Oosterbaan,  G. Paran,  V. Parravicini,  
 Alexander C. Paul,  Suranjan K. Paul,  F. Pavosevic,  Zheng Pei,  S. Prager,  
 E. I. Proynov,  E. Ramos,  B. Rana,  A. E. Rask,  A. Rettig,  R. M. Richard,  
 F. Rob,  E. Rossomme,  T. Scheele,  M. Scheurer,  M. Schneider,  
 P. E. Schneider,  N. Sergueev,  S. M. Sharada,  Hengyuan Shen,  
 W. Skomorowski,  D. W. Small,  C. J. Stein,  Yingli Su,  Yu-Chuan Su,  
 E. J. Sundstrom,  Zhen Tao,  J. Thirman,  Hung-Yi Tsai,  T. Tsuchimochi,  
 N. M. Tubman,  C. Utku,  S. P. Veccham,  O. Vydrov,  J. Wenzel,  
 Jonathan Wong,  J. Witte,  A. Yamada,  Chou-Hsun Yang,  Kun Yao,  
 S. Yeganeh,  S. R. Yost,  A. Zech,  F. Zeller,  Igor Ying Zhang,  
 Xing Zhang,  Yu Zhang,  D. Zuev,  A. Aspuru-Guzik,  A. T. Bell,  
 N. A. Besley,  K. B. Bravaya,  B. R. Brooks,  D. Casanova,  Jeng-Da Chai,  
 Hsing-Ta Chen,  S. Coriani,  C. J. Cramer,  A. E. DePrince, III,  
 R. A. DiStasio Jr.,  A. Dreuw,  B. D. Dunietz,  T. R. Furlani,  
 W. A. Goddard III,  S. Grimme,  S. Hammes-Schiffer,  T. Head-Gordon,  
 W. J. Hehre,  Chao-Ping Hsu,  T.-C. Jagau,  Yousung Jung,  A. Klamt,  
 Jing Kong,  D. S. Lambrecht,  Xiangyuan Li,  WanZhen Liang,  N. J. Mayhall,  
 C. W. McCurdy,  J. B. Neaton,  T. Neudecker,  C. Ochsenfeld,  
 J. A. Parkhill,  R. Peverati,  V. A. Rassolov,  Haisheng Ren,  Yihan Shao,  
 L. V. Slipchenko,  R. P. Steele,  J. E. Subotnik,  A. J. W. Thom,  
 A. Tkatchenko,  D. G. Truhlar,  T. Van Voorhis,  Fan Wang,  
 T. A. Wesolowski,  K. B. Whaley,  H. L. Woodcock III,  P. M. Zimmerman,  
 S. Faraji,  P. M. W. Gill,  M. Head-Gordon,  J. M. Herbert,  A. I. Krylov

 Contributors to earlier versions of Q-Chem not listed above: 
 R. D. Adamson,  B. Austin,  R. Baer,  J. Baker,  G. J. O. Beran,  
 K. Brandhorst,  S. T. Brown,  E. F. C. Byrd,  Arup K. Chakraborty,  
 G. K. L. Chan,  Chun-Min Chang,  Yunqing Chen,  C.-L. Cheng,  
 Siu Hung Chien,  D. M. Chipman,  D. L. Crittenden,  H. Dachsel,  
 R. J. Doerksen,  A. D. Dutoi,  R. G. Edgar,  J. Fosso-Tande,  
 L. Fusti-Molnar,  D. Ghosh,  A. Ghysels,  A. Golubeva-Zadorozhnaya,  
 J. Gonthier,  M. S. Gordon,  S. R. Gwaltney,  G. Hawkins,  J. E. Herr,  
 A. Heyden,  S. Hirata,  E. G. Hohenstein,  G. Kedziora,  F. J. Keil,  
 C. Kelley,  Jihan Kim,  R. A. King,  R. Z. Khaliullin,  P. P. Korambath,  
 W. Kurlancheek,  A. Laurent,  A. M. Lee,  M. S. Lee,  S. V. Levchenko,  
 Ching Yeh Lin,  D. Liotard,  E. Livshits,  R. C. Lochan,  I. Lotan,  
 L. A. Martinez-Martinez,  P. E. Maslen,  N. Nair,  D. P. O'Neill,  
 D. Neuhauser,  E. Neuscamman,  C. M. Oana,  R. Olivares-Amaya,  R. Olson,  
 T. M. Perrine,  B. Peters,  P. A. Pieniazek,  A. Prociuk,  Y. M. Rhee,  
 J. Ritchie,  M. A. Rohrdanz,  E. Rosta,  N. J. Russ,  H. F. Schaefer III,  
 M. W. Schmidt,  N. E. Schultz,  S. Sharma,  N. Shenvi,  C. D. Sherrill,  
 A. C. Simmonett,  A. Sodt,  T. Stein,  D. Stuck,  K. S. Thanthiriwatte,  
 V. Vanovschi,  L. Vogt,  Tao Wang,  A. Warshel,  M. A. Watson,  
 C. F. Williams,  Q. Wu,  X. Xu,  Jun Yang,  W. Zhang,  Yan Zhao

   Please cite Q-Chem as follows:
  "Software for the frontiers of quantum chemistry:
   An overview of developments in the Q-Chem 5 package"
   J. Chem. Phys. 155, 084801 (2021)
   https://doi.org/10.1063/5.0055522 (open access)

 Q-Chem 6.0.2 for Intel X86 EM64T Linux

 Parts of Q-Chem use Armadillo 9.900.5 (Nocturnal Misbehaviour).
 http://arma.sourceforge.net/

 Q-Chem begins on Sun Jan 28 13:54:13 2024  

 Host: 
0

     Scratch files written to /data/scratch/C_FePBstar_enol_L_ccL_3sextet_b3lypD3bj_ccpVDZ_pcmH2O_opt_220240128135412//
 Dec722 |scratch|qcdevops|jenkins|workspace|build_RNUM 8907   
 Processing $rem in /opt/qchem/6.0.1/config/preferences:
 Processing $rem in /home/sgardner/.qchemrc:
 Symmetry turned off for PCM/SM12/SMD calculation

 Checking the input file for inconsistencies... 	...done.

--------------------------------------------------------------
User input:
--------------------------------------------------------------
$molecule
-2 6
C    2.7454702   -2.2219170    0.2805575
C    4.0072447   -2.6826375    0.6949292
C    5.1372095   -2.4927141   -0.1101764
C    5.0292393   -1.8472916   -1.3533205
C    3.7502179   -1.4482608   -1.8123703
C    2.6089358   -1.6255914   -1.0276506
H    4.0991384   -3.1548211    1.6769629
O    1.3867203   -1.2252351   -1.3675109
C    6.2070056   -1.4506844   -2.1740818
O    6.0863760   -1.0077386   -3.3292775
N    7.4361436   -1.5541475   -1.5766948
H    7.4512940   -1.7469053   -0.5823517
C    8.6214532   -0.8992794   -2.1111140
H    9.4576462   -1.6186152   -2.1414187
H    8.3844285   -0.6205757   -3.1467299
C    9.0365384    0.3404986   -1.3034998
H    9.9502049    0.7445446   -1.7718559
H    9.3273679    0.0360189   -0.2821823
C    7.9549797    1.4549078   -1.2159356
H    7.0999058    1.1846753   -1.8580602
H    8.3706558    2.3892222   -1.6257211
N    7.4254365    1.7740280    0.1142623
H    8.1968169    2.0721377    0.7161224
C    5.9910985    1.1158340    2.0391811
H    5.4776927    0.2263789    2.4464835
H    6.7339862    1.4226675    2.7972594
C    6.7132063    0.6772460    0.7632073
H    7.3675948   -0.1850560    1.0181180
H    5.9809172    0.2869120    0.0419720
C    4.9684627    2.2458370    1.8435530
H    4.3765800    2.3672711    2.7659597
H    5.4969717    3.1976292    1.6704623
C    4.0110197    1.9653775    0.6767552
H    3.8439295    0.8855605    0.5763524
H    4.4617257    2.3177307   -0.2661845
N    2.6878889    2.5641705    0.8191831
H    2.5932514    3.5561995    0.6291284
C    1.5503585    1.8160538    0.7390086
O    1.6580112    0.5542522    0.8072945
C    0.2911253    2.4993629    0.5787560
H    0.2424250    3.5716786    0.7710188
C   -2.1516927    2.5882509   -0.0078294
H   -2.7691522    2.1979489    0.8204210
H   -2.0157995    3.6671511    0.1323322
C   -2.8920834    2.3589695   -1.3201214
O   -3.0189168    3.2564972   -2.1615277
N   -3.3896632    1.1071347   -1.4772304
C   -3.8932860    0.6144626   -2.7543285
H   -3.0803159    0.4116952   -0.8011105
C   -5.3872824    0.2877411   -2.7358154
H   -3.3174098   -0.2866065   -3.0233487
H   -3.6824505    1.3911631   -3.5036197
C   -6.2800058    1.5013446   -2.4720495
H   -5.6493402   -0.1517533   -3.7160297
H   -5.5799648   -0.4918722   -1.9813377
C   -7.7768755    1.1471275   -2.4512367
H   -6.1065614    2.2642910   -3.2525263
H   -5.9927444    1.9647685   -1.5130088
H   -8.3685914    2.0788618   -2.4087724
H   -8.0361210    0.6538189   -3.4056491
C   -6.1327860   -1.7197139    0.6856560
C   -4.7315795   -1.5153957    1.1345525
O   -6.4022493   -2.0887430   -0.4771238
C   -4.3964637   -0.8717350    2.3380328
C   -3.6893512   -1.9382253    0.2714141
C   -3.0582407   -0.6504094    2.6835949
C   -2.3484165   -1.7258243    0.5925640
C   -2.0153467   -1.0577588    1.8321836
H   -2.8051352   -0.1270915    3.6096934
O   -1.3227811   -2.0737683   -0.1827722
C   -0.8170361    1.8457580    0.0655817
O   -0.8417292    0.6319679   -0.3633113
H    3.6716266   -0.9407928   -2.7754753
O    1.6562858   -2.2684560    1.0265740
H   -3.9488716   -2.4280384   -0.6686523
O   -0.7375268   -0.8489059    2.0721585
Fe    0.2786817   -0.9829811    0.3015982
N   -8.2398648    0.2798547   -1.3648552
H   -7.7034729   -0.5922501   -1.3758231
N   -7.1254460   -1.4832755    1.5892336
H   -6.8686053   -1.1568068    2.5123491
C   -8.5220998   -1.3434884    1.2084546
H   -8.6626981   -1.9122922    0.2798475
H   -9.1512347   -1.8078399    1.9835286
C   -8.9378243    0.1220747    1.0083721
H   -9.9997850    0.1391859    0.7078964
H   -8.8602157    0.6537341    1.9735674
C   -8.1064038    0.8739111   -0.0334300
H   -8.4709934    1.9143034   -0.0884218
H   -7.0546759    0.9356706    0.3169960
H   -5.1673939   -0.4975248    3.0148621
H    6.1031801   -2.8402913    0.2620190
$end

$rem
BASIS  =  gen
DFT_D  =  D3_BJ
GUI  =  2
JOB_TYPE  =  Optimization
METHOD  =  B3LYP
SCF_CONVERGENCE  =  8
SOLVENT_METHOD  =  PCM
GEOM_OPT_MAX_CYCLES = 200
$end

$pcm
THEORY  CPCM
$end

$solvent
DIELECTRIC  78.39
$end

$van_der_waals
26   2.44
$end

!----------------------------------------------------------------------
! Basis Set Exchange
! Basis set: cc-pVDZ
!----------------------------------------------------------------------

$rem
BASIS GEN
PURECART 11
$end

$basis
H     0
S   4   1.00
1.301000D+01           1.968500D-02
1.962000D+00           1.379770D-01
4.446000D-01           4.781480D-01
1.220000D-01           5.012400D-01
S   1   1.00
1.220000D-01           1.000000D+00
P   1   1.00
7.270000D-01           1.0000000
****
C     0
S   9   1.00
6.665000D+03           6.920000D-04
1.000000D+03           5.329000D-03
2.280000D+02           2.707700D-02
6.471000D+01           1.017180D-01
2.106000D+01           2.747400D-01
7.495000D+00           4.485640D-01
2.797000D+00           2.850740D-01
5.215000D-01           1.520400D-02
1.596000D-01          -3.191000D-03
S   9   1.00
6.665000D+03          -1.460000D-04
1.000000D+03          -1.154000D-03
2.280000D+02          -5.725000D-03
6.471000D+01          -2.331200D-02
2.106000D+01          -6.395500D-02
7.495000D+00          -1.499810D-01
2.797000D+00          -1.272620D-01
5.215000D-01           5.445290D-01
1.596000D-01           5.804960D-01
S   1   1.00
1.596000D-01           1.000000D+00
P   4   1.00
9.439000D+00           3.810900D-02
2.002000D+00           2.094800D-01
5.456000D-01           5.085570D-01
1.517000D-01           4.688420D-01
P   1   1.00
1.517000D-01           1.000000D+00
D   1   1.00
5.500000D-01           1.0000000
****
N     0
S   9   1.00
9.046000D+03           7.000000D-04
1.357000D+03           5.389000D-03
3.093000D+02           2.740600D-02
8.773000D+01           1.032070D-01
2.856000D+01           2.787230D-01
1.021000D+01           4.485400D-01
3.838000D+00           2.782380D-01
7.466000D-01           1.544000D-02
2.248000D-01          -2.864000D-03
S   9   1.00
9.046000D+03          -1.530000D-04
1.357000D+03          -1.208000D-03
3.093000D+02          -5.992000D-03
8.773000D+01          -2.454400D-02
2.856000D+01          -6.745900D-02
1.021000D+01          -1.580780D-01
3.838000D+00          -1.218310D-01
7.466000D-01           5.490030D-01
2.248000D-01           5.788150D-01
S   1   1.00
2.248000D-01           1.000000D+00
P   4   1.00
1.355000D+01           3.991900D-02
2.917000D+00           2.171690D-01
7.973000D-01           5.103190D-01
2.185000D-01           4.622140D-01
P   1   1.00
2.185000D-01           1.000000D+00
D   1   1.00
8.170000D-01           1.0000000
****
O     0
S   9   1.00
1.172000D+04           7.100000D-04
1.759000D+03           5.470000D-03
4.008000D+02           2.783700D-02
1.137000D+02           1.048000D-01
3.703000D+01           2.830620D-01
1.327000D+01           4.487190D-01
5.025000D+00           2.709520D-01
1.013000D+00           1.545800D-02
3.023000D-01          -2.585000D-03
S   9   1.00
1.172000D+04          -1.600000D-04
1.759000D+03          -1.263000D-03
4.008000D+02          -6.267000D-03
1.137000D+02          -2.571600D-02
3.703000D+01          -7.092400D-02
1.327000D+01          -1.654110D-01
5.025000D+00          -1.169550D-01
1.013000D+00           5.573680D-01
3.023000D-01           5.727590D-01
S   1   1.00
3.023000D-01           1.000000D+00
P   4   1.00
1.770000D+01           4.301800D-02
3.854000D+00           2.289130D-01
1.046000D+00           5.087280D-01
2.753000D-01           4.605310D-01
P   1   1.00
2.753000D-01           1.000000D+00
D   1   1.00
1.185000D+00           1.0000000
****
Fe     0
S   20   1.00
4.316265D+06           8.048803D-06
6.463424D+05           6.258306D-05
1.470897D+05           3.290239D-04
4.166152D+04           1.387355D-03
1.359077D+04           5.023256D-03
4.905750D+03           1.610140D-02
1.912746D+03           4.590034D-02
7.926043D+02           1.136154D-01
3.448065D+02           2.283869D-01
1.558999D+02           3.221159D-01
7.223091D+01           2.383661D-01
3.272506D+01           7.404667D-02
1.566762D+01           9.214197D-02
7.503483D+00           9.339790D-02
3.312223D+00           1.573965D-02
1.558471D+00          -4.186682D-04
6.839140D-01           5.376318D-05
1.467570D-01          -3.816654D-05
7.058300D-02           4.319603D-05
3.144900D-02          -3.401019D-06
S   20   1.00
4.316265D+06          -4.155954D-06
6.463424D+05          -3.231401D-05
1.470897D+05          -1.699525D-04
4.166152D+04          -7.171369D-04
1.359077D+04          -2.603625D-03
4.905750D+03          -8.399109D-03
1.912746D+03          -2.434109D-02
7.926043D+02          -6.251948D-02
3.448065D+02          -1.365929D-01
1.558999D+02          -2.312707D-01
7.223091D+01          -2.383734D-01
3.272506D+01           3.123837D-02
1.566762D+01           5.086818D-01
7.503483D+00           4.987695D-01
3.312223D+00           9.033552D-02
1.558471D+00          -6.005337D-03
6.839140D-01           2.312454D-04
1.467570D-01          -5.643680D-04
7.058300D-02           4.992260D-04
3.144900D-02          -1.015293D-04
S   20   1.00
4.316265D+06           9.532178D-07
6.463424D+05           7.414605D-06
1.470897D+05           3.898393D-05
4.166152D+04           1.647152D-04
1.359077D+04           5.985980D-04
4.905750D+03           1.942390D-03
1.912746D+03           5.687237D-03
7.926043D+02           1.501329D-02
3.448065D+02           3.452455D-02
1.558999D+02           6.495820D-02
7.223091D+01           7.716194D-02
3.272506D+01          -1.873411D-02
1.566762D+01          -3.009185D-01
7.503483D+00          -4.554661D-01
3.312223D+00           1.286463D-01
1.558471D+00           7.183316D-01
6.839140D-01           4.051743D-01
1.467570D-01           2.168227D-02
7.058300D-02          -8.343566D-03
3.144900D-02           3.658979D-03
S   20   1.00
4.316265D+06          -2.063008D-07
6.463424D+05          -1.604169D-06
1.470897D+05          -8.438437D-06
4.166152D+04          -3.563151D-05
1.359077D+04          -1.295998D-04
4.905750D+03          -4.201534D-04
1.912746D+03          -1.231954D-03
7.926043D+02          -3.248922D-03
3.448065D+02          -7.493717D-03
1.558999D+02          -1.410102D-02
7.223091D+01          -1.691600D-02
3.272506D+01           4.218996D-03
1.566762D+01           6.833810D-02
7.503483D+00           1.098201D-01
3.312223D+00          -4.009005D-02
1.558471D+00          -2.174739D-01
6.839140D-01          -2.465135D-01
1.467570D-01           2.731435D-01
7.058300D-02           5.748321D-01
3.144900D-02           3.012713D-01
S   20   1.00
4.316265D+06          -4.009367D-07
6.463424D+05          -3.189255D-06
1.470897D+05          -1.623079D-05
4.166152D+04          -7.157920D-05
1.359077D+04          -2.463958D-04
4.905750D+03          -8.544907D-04
1.912746D+03          -2.307593D-03
7.926043D+02          -6.728292D-03
3.448065D+02          -1.366165D-02
1.558999D+02          -3.062240D-02
7.223091D+01          -2.631137D-02
3.272506D+01          -9.760183D-03
1.566762D+01           1.801906D-01
7.503483D+00           1.529634D-01
3.312223D+00           5.505413D-02
1.558471D+00          -9.551364D-01
6.839140D-01           2.586813D-01
1.467570D-01           1.834049D+00
7.058300D-02          -9.333240D-01
3.144900D-02          -6.981605D-01
S   1   1.00
3.144900D-02           1.000000D+00
P   16   1.00
1.774569D+04           4.100000D-05
4.200721D+03           3.690000D-04
1.364429D+03           2.129000D-03
5.220806D+02           9.369000D-03
2.214595D+02           3.309700D-02
1.009096D+02           9.443100D-02
4.840115D+01           2.080770D-01
2.398536D+01           3.323330D-01
1.218250D+01           3.329870D-01
6.242298D+00           1.568430D-01
3.110944D+00           2.154900D-02
1.509958D+00          -2.095000D-03
7.108450D-01          -1.739000D-03
2.731900D-01          -3.000000D-04
1.042330D-01           2.900000D-05
3.829100D-02          -1.100000D-05
P   16   1.00
1.774569D+04          -1.500000D-05
4.200721D+03          -1.300000D-04
1.364429D+03          -7.510000D-04
5.220806D+02          -3.329000D-03
2.214595D+02          -1.191200D-02
1.009096D+02          -3.493300D-02
4.840115D+01          -7.998900D-02
2.398536D+01          -1.346360D-01
1.218250D+01          -1.385980D-01
6.242298D+00           3.027800D-02
3.110944D+00           3.332160D-01
1.509958D+00           4.561530D-01
7.108450D-01           2.850510D-01
2.731900D-01           4.614400D-02
1.042330D-01          -3.249000D-03
3.829100D-02           1.357000D-03
P   16   1.00
1.774569D+04           5.000000D-06
4.200721D+03           4.200000D-05
1.364429D+03           2.410000D-04
5.220806D+02           1.085000D-03
2.214595D+02           3.831000D-03
1.009096D+02           1.142300D-02
4.840115D+01           2.579200D-02
2.398536D+01           4.481800D-02
1.218250D+01           4.459800D-02
6.242298D+00          -1.117700D-02
3.110944D+00          -1.381340D-01
1.509958D+00          -1.882850D-01
7.108450D-01          -1.073990D-01
2.731900D-01           4.448630D-01
1.042330D-01           6.402390D-01
3.829100D-02           6.445700D-02
P   16   1.00
1.774569D+04           3.000000D-06
4.200721D+03           2.900000D-05
1.364429D+03           1.650000D-04
5.220806D+02           7.340000D-04
2.214595D+02           2.626000D-03
1.009096D+02           7.725000D-03
4.840115D+01           1.773300D-02
2.398536D+01           3.005500D-02
1.218250D+01           3.109400D-02
6.242298D+00          -1.004800D-02
3.110944D+00          -8.830600D-02
1.509958D+00          -1.298240D-01
7.108450D-01          -7.693700D-02
2.731900D-01           2.126610D-01
1.042330D-01           5.730610D-01
3.829100D-02           3.696510D-01
P   1   1.00
3.829100D-02           1.000000D+00
D   8   1.00
1.133440D+02           3.530000D-03
3.364140D+01           2.578400D-02
1.233100D+01           9.911900D-02
4.994780D+00           2.390730D-01
2.072800D+00           3.571990D-01
8.307530D-01           3.621880D-01
3.091780D-01           2.364610D-01
1.001300D-01           6.011800D-02
D   8   1.00
1.133440D+02          -3.890000D-03
3.364140D+01          -2.844200D-02
1.233100D+01          -1.124290D-01
4.994780D+00          -2.742570D-01
2.072800D+00          -3.155460D-01
8.307530D-01           5.710900D-02
3.091780D-01           5.636040D-01
1.001300D-01           3.846370D-01
D   1   1.00
1.001300D-01           1.000000D+00
F   2   1.00
3.224300D+00           4.222490D-01
7.758000D-01           7.714680D-01
****
$end


--------------------------------------------------------------
 Adding empirical dispersion correction 
 ----------------------------------------------------------------
 Doing -D3(BJ) with
 s6  =   1.00000
 s8  =   1.98890
 a1  =   0.39810
 a2  =   4.42110
 -D3 energy without 3body term =     -0.2240921233 hartrees
 ----------------------------------------------------------------
             Standard Nuclear Orientation (Angstroms)
    I     Atom           X                Y                Z
 ----------------------------------------------------------------
    1      C       2.7454702000    -2.2219170000     0.2805575000
    2      C       4.0072447000    -2.6826375000     0.6949292000
    3      C       5.1372095000    -2.4927141000    -0.1101764000
    4      C       5.0292393000    -1.8472916000    -1.3533205000
    5      C       3.7502179000    -1.4482608000    -1.8123703000
    6      C       2.6089358000    -1.6255914000    -1.0276506000
    7      H       4.0991384000    -3.1548211000     1.6769629000
    8      O       1.3867203000    -1.2252351000    -1.3675109000
    9      C       6.2070056000    -1.4506844000    -2.1740818000
   10      O       6.0863760000    -1.0077386000    -3.3292775000
   11      N       7.4361436000    -1.5541475000    -1.5766948000
   12      H       7.4512940000    -1.7469053000    -0.5823517000
   13      C       8.6214532000    -0.8992794000    -2.1111140000
   14      H       9.4576462000    -1.6186152000    -2.1414187000
   15      H       8.3844285000    -0.6205757000    -3.1467299000
   16      C       9.0365384000     0.3404986000    -1.3034998000
   17      H       9.9502049000     0.7445446000    -1.7718559000
   18      H       9.3273679000     0.0360189000    -0.2821823000
   19      C       7.9549797000     1.4549078000    -1.2159356000
   20      H       7.0999058000     1.1846753000    -1.8580602000
   21      H       8.3706558000     2.3892222000    -1.6257211000
   22      N       7.4254365000     1.7740280000     0.1142623000
   23      H       8.1968169000     2.0721377000     0.7161224000
   24      C       5.9910985000     1.1158340000     2.0391811000
   25      H       5.4776927000     0.2263789000     2.4464835000
   26      H       6.7339862000     1.4226675000     2.7972594000
   27      C       6.7132063000     0.6772460000     0.7632073000
   28      H       7.3675948000    -0.1850560000     1.0181180000
   29      H       5.9809172000     0.2869120000     0.0419720000
   30      C       4.9684627000     2.2458370000     1.8435530000
   31      H       4.3765800000     2.3672711000     2.7659597000
   32      H       5.4969717000     3.1976292000     1.6704623000
   33      C       4.0110197000     1.9653775000     0.6767552000
   34      H       3.8439295000     0.8855605000     0.5763524000
   35      H       4.4617257000     2.3177307000    -0.2661845000
   36      N       2.6878889000     2.5641705000     0.8191831000
   37      H       2.5932514000     3.5561995000     0.6291284000
   38      C       1.5503585000     1.8160538000     0.7390086000
   39      O       1.6580112000     0.5542522000     0.8072945000
   40      C       0.2911253000     2.4993629000     0.5787560000
   41      H       0.2424250000     3.5716786000     0.7710188000
   42      C      -2.1516927000     2.5882509000    -0.0078294000
   43      H      -2.7691522000     2.1979489000     0.8204210000
   44      H      -2.0157995000     3.6671511000     0.1323322000
   45      C      -2.8920834000     2.3589695000    -1.3201214000
   46      O      -3.0189168000     3.2564972000    -2.1615277000
   47      N      -3.3896632000     1.1071347000    -1.4772304000
   48      C      -3.8932860000     0.6144626000    -2.7543285000
   49      H      -3.0803159000     0.4116952000    -0.8011105000
   50      C      -5.3872824000     0.2877411000    -2.7358154000
   51      H      -3.3174098000    -0.2866065000    -3.0233487000
   52      H      -3.6824505000     1.3911631000    -3.5036197000
   53      C      -6.2800058000     1.5013446000    -2.4720495000
   54      H      -5.6493402000    -0.1517533000    -3.7160297000
   55      H      -5.5799648000    -0.4918722000    -1.9813377000
   56      C      -7.7768755000     1.1471275000    -2.4512367000
   57      H      -6.1065614000     2.2642910000    -3.2525263000
   58      H      -5.9927444000     1.9647685000    -1.5130088000
   59      H      -8.3685914000     2.0788618000    -2.4087724000
   60      H      -8.0361210000     0.6538189000    -3.4056491000
   61      C      -6.1327860000    -1.7197139000     0.6856560000
   62      C      -4.7315795000    -1.5153957000     1.1345525000
   63      O      -6.4022493000    -2.0887430000    -0.4771238000
   64      C      -4.3964637000    -0.8717350000     2.3380328000
   65      C      -3.6893512000    -1.9382253000     0.2714141000
   66      C      -3.0582407000    -0.6504094000     2.6835949000
   67      C      -2.3484165000    -1.7258243000     0.5925640000
   68      C      -2.0153467000    -1.0577588000     1.8321836000
   69      H      -2.8051352000    -0.1270915000     3.6096934000
   70      O      -1.3227811000    -2.0737683000    -0.1827722000
   71      C      -0.8170361000     1.8457580000     0.0655817000
   72      O      -0.8417292000     0.6319679000    -0.3633113000
   73      H       3.6716266000    -0.9407928000    -2.7754753000
   74      O       1.6562858000    -2.2684560000     1.0265740000
   75      H      -3.9488716000    -2.4280384000    -0.6686523000
   76      O      -0.7375268000    -0.8489059000     2.0721585000
   77      Fe      0.2786817000    -0.9829811000     0.3015982000
   78      N      -8.2398648000     0.2798547000    -1.3648552000
   79      H      -7.7034729000    -0.5922501000    -1.3758231000
   80      N      -7.1254460000    -1.4832755000     1.5892336000
   81      H      -6.8686053000    -1.1568068000     2.5123491000
   82      C      -8.5220998000    -1.3434884000     1.2084546000
   83      H      -8.6626981000    -1.9122922000     0.2798475000
   84      H      -9.1512347000    -1.8078399000     1.9835286000
   85      C      -8.9378243000     0.1220747000     1.0083721000
   86      H      -9.9997850000     0.1391859000     0.7078964000
   87      H      -8.8602157000     0.6537341000     1.9735674000
   88      C      -8.1064038000     0.8739111000    -0.0334300000
   89      H      -8.4709934000     1.9143034000    -0.0884218000
   90      H      -7.0546759000     0.9356706000     0.3169960000
   91      H      -5.1673939000    -0.4975248000     3.0148621000
   92      H       6.1031801000    -2.8402913000     0.2620190000
 ----------------------------------------------------------------
 Nuclear Repulsion Energy =        7397.18287450 hartrees
 There are      194 alpha and      189 beta electrons
 Requested basis set is non-standard
 There are 432 shells and 930 basis functions

 Total QAlloc Memory Limit   8000 MB
 Mega-Array Size       188 MB
 MEM_STATIC part       192 MB

 -----------------------------------------------------------------------
                STARTING GEOMETRY OPTIMIZER USING LIBOPT3
                by Peter F. McLaughlin, Yu Zhang, Evgeny Epifanovsky
 -----------------------------------------------------------------------

              Initial Energy and Gradient Calculation
   -- Checking Topology for Ill-Behaving Coordinates --

 -------------------------------------------
   Coordinate       |  Removed | Additions 
 -------------------------------------------
	Bonds                     0          0
	Angles                    3          0
	Torsions                  6          6
	Co-Linear Type5s          0          6
	Co-Linear Type6s          0          6
 -------------------------------------------

 ** Ill-Behaving Topology Definitions (No action needed.) **

  Ill-Defined Angles Removed: 
   8  77  76,  39  77  70,  72  77  74

  Ill-Defined Torsions Removed: 
   1  74  77  72,   6   8  77  76,  38  39  77  70,  67  70  77  39,  68  76  77   8
  71  72  77  74

     Done Checking Topology
 Adding empirical dispersion correction 
 ----------------------------------------------------------------
 Doing -D3(BJ) with
 s6  =   1.00000
 s8  =   1.98890
 a1  =   0.39810
 a2  =   4.42110
 -D3 energy without 3body term =     -0.2240921233 hartrees
 ----------------------------------------------------------------
             Standard Nuclear Orientation (Angstroms)
    I     Atom           X                Y                Z
 ----------------------------------------------------------------
    1      C       2.7454702000    -2.2219170000     0.2805575000
    2      C       4.0072447000    -2.6826375000     0.6949292000
    3      C       5.1372095000    -2.4927141000    -0.1101764000
    4      C       5.0292393000    -1.8472916000    -1.3533205000
    5      C       3.7502179000    -1.4482608000    -1.8123703000
    6      C       2.6089358000    -1.6255914000    -1.0276506000
    7      H       4.0991384000    -3.1548211000     1.6769629000
    8      O       1.3867203000    -1.2252351000    -1.3675109000
    9      C       6.2070056000    -1.4506844000    -2.1740818000
   10      O       6.0863760000    -1.0077386000    -3.3292775000
   11      N       7.4361436000    -1.5541475000    -1.5766948000
   12      H       7.4512940000    -1.7469053000    -0.5823517000
   13      C       8.6214532000    -0.8992794000    -2.1111140000
   14      H       9.4576462000    -1.6186152000    -2.1414187000
   15      H       8.3844285000    -0.6205757000    -3.1467299000
   16      C       9.0365384000     0.3404986000    -1.3034998000
   17      H       9.9502049000     0.7445446000    -1.7718559000
   18      H       9.3273679000     0.0360189000    -0.2821823000
   19      C       7.9549797000     1.4549078000    -1.2159356000
   20      H       7.0999058000     1.1846753000    -1.8580602000
   21      H       8.3706558000     2.3892222000    -1.6257211000
   22      N       7.4254365000     1.7740280000     0.1142623000
   23      H       8.1968169000     2.0721377000     0.7161224000
   24      C       5.9910985000     1.1158340000     2.0391811000
   25      H       5.4776927000     0.2263789000     2.4464835000
   26      H       6.7339862000     1.4226675000     2.7972594000
   27      C       6.7132063000     0.6772460000     0.7632073000
   28      H       7.3675948000    -0.1850560000     1.0181180000
   29      H       5.9809172000     0.2869120000     0.0419720000
   30      C       4.9684627000     2.2458370000     1.8435530000
   31      H       4.3765800000     2.3672711000     2.7659597000
   32      H       5.4969717000     3.1976292000     1.6704623000
   33      C       4.0110197000     1.9653775000     0.6767552000
   34      H       3.8439295000     0.8855605000     0.5763524000
   35      H       4.4617257000     2.3177307000    -0.2661845000
   36      N       2.6878889000     2.5641705000     0.8191831000
   37      H       2.5932514000     3.5561995000     0.6291284000
   38      C       1.5503585000     1.8160538000     0.7390086000
   39      O       1.6580112000     0.5542522000     0.8072945000
   40      C       0.2911253000     2.4993629000     0.5787560000
   41      H       0.2424250000     3.5716786000     0.7710188000
   42      C      -2.1516927000     2.5882509000    -0.0078294000
   43      H      -2.7691522000     2.1979489000     0.8204210000
   44      H      -2.0157995000     3.6671511000     0.1323322000
   45      C      -2.8920834000     2.3589695000    -1.3201214000
   46      O      -3.0189168000     3.2564972000    -2.1615277000
   47      N      -3.3896632000     1.1071347000    -1.4772304000
   48      C      -3.8932860000     0.6144626000    -2.7543285000
   49      H      -3.0803159000     0.4116952000    -0.8011105000
   50      C      -5.3872824000     0.2877411000    -2.7358154000
   51      H      -3.3174098000    -0.2866065000    -3.0233487000
   52      H      -3.6824505000     1.3911631000    -3.5036197000
   53      C      -6.2800058000     1.5013446000    -2.4720495000
   54      H      -5.6493402000    -0.1517533000    -3.7160297000
   55      H      -5.5799648000    -0.4918722000    -1.9813377000
   56      C      -7.7768755000     1.1471275000    -2.4512367000
   57      H      -6.1065614000     2.2642910000    -3.2525263000
   58      H      -5.9927444000     1.9647685000    -1.5130088000
   59      H      -8.3685914000     2.0788618000    -2.4087724000
   60      H      -8.0361210000     0.6538189000    -3.4056491000
   61      C      -6.1327860000    -1.7197139000     0.6856560000
   62      C      -4.7315795000    -1.5153957000     1.1345525000
   63      O      -6.4022493000    -2.0887430000    -0.4771238000
   64      C      -4.3964637000    -0.8717350000     2.3380328000
   65      C      -3.6893512000    -1.9382253000     0.2714141000
   66      C      -3.0582407000    -0.6504094000     2.6835949000
   67      C      -2.3484165000    -1.7258243000     0.5925640000
   68      C      -2.0153467000    -1.0577588000     1.8321836000
   69      H      -2.8051352000    -0.1270915000     3.6096934000
   70      O      -1.3227811000    -2.0737683000    -0.1827722000
   71      C      -0.8170361000     1.8457580000     0.0655817000
   72      O      -0.8417292000     0.6319679000    -0.3633113000
   73      H       3.6716266000    -0.9407928000    -2.7754753000
   74      O       1.6562858000    -2.2684560000     1.0265740000
   75      H      -3.9488716000    -2.4280384000    -0.6686523000
   76      O      -0.7375268000    -0.8489059000     2.0721585000
   77      Fe      0.2786817000    -0.9829811000     0.3015982000
   78      N      -8.2398648000     0.2798547000    -1.3648552000
   79      H      -7.7034729000    -0.5922501000    -1.3758231000
   80      N      -7.1254460000    -1.4832755000     1.5892336000
   81      H      -6.8686053000    -1.1568068000     2.5123491000
   82      C      -8.5220998000    -1.3434884000     1.2084546000
   83      H      -8.6626981000    -1.9122922000     0.2798475000
   84      H      -9.1512347000    -1.8078399000     1.9835286000
   85      C      -8.9378243000     0.1220747000     1.0083721000
   86      H      -9.9997850000     0.1391859000     0.7078964000
   87      H      -8.8602157000     0.6537341000     1.9735674000
   88      C      -8.1064038000     0.8739111000    -0.0334300000
   89      H      -8.4709934000     1.9143034000    -0.0884218000
   90      H      -7.0546759000     0.9356706000     0.3169960000
   91      H      -5.1673939000    -0.4975248000     3.0148621000
   92      H       6.1031801000    -2.8402913000     0.2620190000
 ----------------------------------------------------------------
 Nuclear Repulsion Energy =        7397.18287450 hartrees
 There are      194 alpha and      189 beta electrons
 Using C-PCM dielectric factor f(eps) = (eps-1)/eps = 0.987243
No default van der Waals radius is available for Z = 26
	Found R = 2.4400 A in the $van_der_waals section
 Discretize the solute cavity surface with Lebedev spheres
	Using 110 Lebedev grid points for each H atom
	Using 194 Lebedev grid points for other atoms
	Atomic van der Waals radii (Bondi set) will be scaled by 1.20
 Using smooth SwiG surface discretization
 Remove points where switching function is < 1.0e-08
 Keep 5411 surface tesserae and discard 8825 interior tesserae
 Molecular Surface Area = 668.822 Angst**2

 Requested basis set is non-standard
 There are 432 shells and 930 basis functions
 A cutoff of  1.0D-12 yielded  56747 shell pairs
 There are    245291 function pairs (    271264 Cartesian)
 Smallest overlap matrix eigenvalue = 2.21E-04

 Scale SEOQF with 1.000000e-02/1.000000e-01/1.000000e-01

 Standard Electronic Orientation quadrupole field applied
 Nucleus-field energy     =     0.0000000132 hartrees
 ================ Generating on-the-fly SAD Guess ================
 Attempting to make child job directory: /data/scratch/C_FePBstar_enol_L_ccL_3sextet_b3lypD3bj_ccpVDZ_pcmH2O_opt_220240128135412//Frg1/
 Attempting to make child job directory: /data/scratch/C_FePBstar_enol_L_ccL_3sextet_b3lypD3bj_ccpVDZ_pcmH2O_opt_220240128135412//Frg2/
 Attempting to make child job directory: /data/scratch/C_FePBstar_enol_L_ccL_3sextet_b3lypD3bj_ccpVDZ_pcmH2O_opt_220240128135412//Frg3/
 Attempting to make child job directory: /data/scratch/C_FePBstar_enol_L_ccL_3sextet_b3lypD3bj_ccpVDZ_pcmH2O_opt_220240128135412//Frg4/
 Attempting to make child job directory: /data/scratch/C_FePBstar_enol_L_ccL_3sextet_b3lypD3bj_ccpVDZ_pcmH2O_opt_220240128135412//Frg5/
 Creating input file /data/scratch/C_FePBstar_enol_L_ccL_3sextet_b3lypD3bj_ccpVDZ_pcmH2O_opt_220240128135412/Frg1.input
 using default PutDataFrgm: nothing
 calling putenv with: QCSCRATCH=/data/scratch/C_FePBstar_enol_L_ccL_3sextet_b3lypD3bj_ccpVDZ_pcmH2O_opt_220240128135412/ 
 Spawning Job For Fragment 0
 Done Job For Fragment 0
 calling putenv with: QCSCRATCH=/data/scratch 
 calling putenv with: QCTHREADS=20 
 Creating input file /data/scratch/C_FePBstar_enol_L_ccL_3sextet_b3lypD3bj_ccpVDZ_pcmH2O_opt_220240128135412/Frg2.input
 using default PutDataFrgm: nothing
 calling putenv with: QCSCRATCH=/data/scratch/C_FePBstar_enol_L_ccL_3sextet_b3lypD3bj_ccpVDZ_pcmH2O_opt_220240128135412/ 
 Spawning Job For Fragment 1
 Done Job For Fragment 1
 calling putenv with: QCSCRATCH=/data/scratch 
 calling putenv with: QCTHREADS=20 
 Creating input file /data/scratch/C_FePBstar_enol_L_ccL_3sextet_b3lypD3bj_ccpVDZ_pcmH2O_opt_220240128135412/Frg3.input
 using default PutDataFrgm: nothing
 calling putenv with: QCSCRATCH=/data/scratch/C_FePBstar_enol_L_ccL_3sextet_b3lypD3bj_ccpVDZ_pcmH2O_opt_220240128135412/ 
 Spawning Job For Fragment 2
 Done Job For Fragment 2
 calling putenv with: QCSCRATCH=/data/scratch 
 calling putenv with: QCTHREADS=20 
 Creating input file /data/scratch/C_FePBstar_enol_L_ccL_3sextet_b3lypD3bj_ccpVDZ_pcmH2O_opt_220240128135412/Frg4.input
 using default PutDataFrgm: nothing
 calling putenv with: QCSCRATCH=/data/scratch/C_FePBstar_enol_L_ccL_3sextet_b3lypD3bj_ccpVDZ_pcmH2O_opt_220240128135412/ 
 Spawning Job For Fragment 3
 Done Job For Fragment 3
 calling putenv with: QCSCRATCH=/data/scratch 
 calling putenv with: QCTHREADS=20 
 Creating input file /data/scratch/C_FePBstar_enol_L_ccL_3sextet_b3lypD3bj_ccpVDZ_pcmH2O_opt_220240128135412/Frg5.input
 using default PutDataFrgm: nothing
 calling putenv with: QCSCRATCH=/data/scratch/C_FePBstar_enol_L_ccL_3sextet_b3lypD3bj_ccpVDZ_pcmH2O_opt_220240128135412/ 
 Spawning Job For Fragment 4
 Done Job For Fragment 4
 calling putenv with: QCSCRATCH=/data/scratch 
 calling putenv with: QCTHREADS=20 
 Time for running child jobs:  CPU 0.02 s  wall 51.80 s
 ============= Method Specific SAD Guess Constructed =============
 Guess from on-the-fly superposition of atomic densities
 Warning: Energy on first SCF cycle will be non-variational

 -----------------------------------------------------------------------
  General SCF calculation program by
  Eric Jon Sundstrom, Paul Horn, Yuezhi Mao, Dmitri Zuev, Alec White,
  David Stuck, Shaama M.S., Shane Yost, Joonho Lee, David Small,
  Daniel Levine, Susi Lehtola, Hugh Burton, Evgeny Epifanovsky,
  Bang C. Huynh
 -----------------------------------------------------------------------
 Exchange:     0.2000 Hartree-Fock + 0.0800 Slater + 0.7200 B88
 Correlation:  0.1900 VWN1RPA + 0.8100 LYP
 Using SG-1 standard quadrature grid
 Dispersion:   Grimme D3
 using 20 threads for integral computing
 -------------------------------------------------------
 OpenMP Integral computing Module                
 Release: version 1.0, May 2013, Q-Chem Inc. Pittsburgh 
 -------------------------------------------------------
 C-PCM solvent model [f = (eps-1)/eps], solve by matrix inversion
 A unrestricted SCF calculation will be
 performed using DIIS
 SCF converges when DIIS error is below 1.0e-08
 ---------------------------------------
  Cycle       Energy         DIIS error
 ---------------------------------------
    1   -3572.7631178767      1.45e-02  
    2   -3552.3324724977      1.70e-03  
    3   -3547.2141870386      4.70e-03  
    4   -3548.2468997565      3.71e-03  
    5   -3553.4568773216      5.44e-04  
    6   -3553.5201170847      4.13e-04  
    7   -3553.5860351954      1.36e-04  
    8   -3553.5907002789      7.20e-05  
    9   -3553.5925146355      3.41e-05  
   10   -3553.5928389418      1.83e-05  
   11   -3553.5929649245      5.32e-06  
   12   -3553.5929735493      2.54e-06  
   13   -3553.5929760758      1.05e-06  
   14   -3553.5929766047      6.70e-07  
   15   -3553.5929767593      3.89e-07  
   16   -3553.5929768108      1.79e-07  
   17   -3553.5929768257      6.15e-08  
   18   -3553.5929768305      4.41e-08  
   19   -3553.5929768316      2.27e-08  
   20   -3553.5929768321      1.14e-08  
   21   -3553.5929768322      5.04e-09  Convergence criterion met
 ---------------------------------------
 SCF time:   CPU 39474.22s  wall 2799.00s 
<S^2> =          8.758436693

************** Final PCM Free Energy Summary **************
 G_electrostatic  =      -0.28825199 hartree =    -180.88085302 kcal/mol
 G_cavitation     =       0.00000000 hartree =       0.00000000 kcal/mol
 G_dispersion     =       0.00000000 hartree =       0.00000000 kcal/mol
 G_repulsion      =       0.00000000 hartree =       0.00000000 kcal/mol
 --------------------------------------------------
 Non-electrostatic Free Energy =       0.00000000 hartree =       0.00000000 kcal/mol
 Total                         =      -0.28825199 hartree =    -180.88085302 kcal/mol
 --------------------------------------------------
 SCF Energy (H0 + V/2)                       =   -3553.59297683 
 Solute Internal Energy (H0)                 =   -3553.30472484 
 Total Free Energy (H0 + V/2 + non-elec)     =   -3553.59297683 hartree
                                             = -2229913.24904127 kcal/mol
***********************************************************

 SCF   energy in the final basis set =    -3553.5929768322
 Total energy in the final basis set =    -3553.5929768322
 
 --------------------------------------------------------------
 
                    Orbital Energies (a.u.)
 --------------------------------------------------------------
 
 Alpha MOs
 -- Occupied --
******** -30.1195 -25.9732 -25.9711 -25.9697 -19.1107 -19.1045 -19.0978
-19.0971 -19.0968 -19.0946 -19.0946 -19.0933 -19.0913 -14.3414 -14.3401
-14.3366 -14.3345 -14.3041 -14.2956 -10.2788 -10.2760 -10.2757 -10.2735
-10.2455 -10.2142 -10.2116 -10.2095 -10.2087 -10.2085 -10.2068 -10.2052
-10.2041 -10.1981 -10.1946 -10.1944 -10.1927 -10.1842 -10.1758 -10.1756
-10.1754 -10.1742 -10.1739 -10.1730 -10.1727 -10.1721 -10.1674 -10.1667
-10.1633 -10.1630 -10.1625 -10.1603 -10.1525  -3.6016  -2.3788  -2.3757
 -2.3711  -1.0306  -1.0220  -1.0197  -1.0172  -1.0018  -0.9952  -0.9925
 -0.9570  -0.9552  -0.9106  -0.9096  -0.9085  -0.9071  -0.8912  -0.8880
 -0.8212  -0.8195  -0.7848  -0.7813  -0.7660  -0.7578  -0.7530  -0.7291
 -0.7222  -0.7197  -0.7084  -0.7021  -0.6959  -0.6865  -0.6641  -0.6570
 -0.6326  -0.6211  -0.6012  -0.5993  -0.5857  -0.5815  -0.5803  -0.5771
 -0.5769  -0.5663  -0.5626  -0.5611  -0.5569  -0.5561  -0.5417  -0.5092
 -0.5051  -0.4982  -0.4891  -0.4848  -0.4834  -0.4736  -0.4724  -0.4712
 -0.4682  -0.4653  -0.4641  -0.4595  -0.4576  -0.4530  -0.4505  -0.4471
 -0.4440  -0.4427  -0.4385  -0.4340  -0.4328  -0.4277  -0.4246  -0.4205
 -0.4170  -0.4131  -0.4100  -0.4096  -0.4089  -0.4061  -0.4041  -0.4015
 -0.3994  -0.3975  -0.3950  -0.3928  -0.3911  -0.3873  -0.3856  -0.3820
 -0.3786  -0.3758  -0.3726  -0.3709  -0.3687  -0.3662  -0.3642  -0.3623
 -0.3610  -0.3593  -0.3542  -0.3508  -0.3453  -0.3445  -0.3410  -0.3362
 -0.3356  -0.3342  -0.3324  -0.3316  -0.3293  -0.3267  -0.3204  -0.3165
 -0.3131  -0.3120  -0.3109  -0.3090  -0.2960  -0.2947  -0.2816  -0.2641
 -0.2590  -0.2540  -0.2505  -0.2490  -0.2477  -0.2464  -0.2458  -0.2413
 -0.2381  -0.2221  -0.2191  -0.2156  -0.2143  -0.2109  -0.2100  -0.1987
 -0.1688  -0.1668
 -- Virtual --
 -0.0136  -0.0108  -0.0054   0.0222   0.0249   0.0301   0.0431   0.0556
  0.0612   0.0639   0.0653   0.0752   0.0761   0.0804   0.0816   0.0840
  0.0881   0.0905   0.0937   0.0944   0.0976   0.1033   0.1058   0.1077
  0.1132   0.1138   0.1148   0.1185   0.1228   0.1252   0.1273   0.1291
  0.1328   0.1387   0.1412   0.1432   0.1458   0.1474   0.1513   0.1554
  0.1567   0.1576   0.1615   0.1658   0.1697   0.1711   0.1740   0.1755
  0.1785   0.1801   0.1830   0.1859   0.1907   0.1927   0.1948   0.1980
  0.2014   0.2050   0.2093   0.2160   0.2183   0.2233   0.2248   0.2279
  0.2296   0.2359   0.2373   0.2407   0.2452   0.2483   0.2574   0.2601
  0.2605   0.2659   0.2666   0.2705   0.2726   0.2777   0.2787   0.2803
  0.2826   0.2897   0.2927   0.2946   0.3011   0.3049   0.3105   0.3117
  0.3139   0.3195   0.3228   0.3273   0.3298   0.3404   0.3431   0.3563
  0.3620   0.3675   0.3729   0.3746   0.3834   0.3993   0.4052   0.4092
  0.4138   0.4158   0.4166   0.4241   0.4252   0.4282   0.4312   0.4354
  0.4370   0.4414   0.4440   0.4461   0.4518   0.4534   0.4564   0.4606
  0.4621   0.4662   0.4706   0.4724   0.4758   0.4790   0.4832   0.4856
  0.4911   0.4922   0.4935   0.4980   0.5006   0.5072   0.5094   0.5106
  0.5160   0.5194   0.5205   0.5231   0.5262   0.5299   0.5344   0.5389
  0.5428   0.5476   0.5508   0.5523   0.5529   0.5577   0.5598   0.5627
  0.5657   0.5675   0.5704   0.5750   0.5784   0.5825   0.5839   0.5857
  0.5878   0.5928   0.5948   0.5974   0.5981   0.6038   0.6065   0.6068
  0.6131   0.6142   0.6171   0.6189   0.6221   0.6229   0.6271   0.6313
  0.6324   0.6345   0.6365   0.6398   0.6432   0.6445   0.6461   0.6475
  0.6493   0.6531   0.6554   0.6584   0.6597   0.6635   0.6651   0.6679
  0.6712   0.6728   0.6750   0.6767   0.6778   0.6817   0.6834   0.6857
  0.6862   0.6879   0.6924   0.6927   0.6966   0.6989   0.7020   0.7042
  0.7051   0.7062   0.7072   0.7114   0.7123   0.7128   0.7218   0.7239
  0.7243   0.7273   0.7287   0.7294   0.7339   0.7359   0.7418   0.7461
  0.7480   0.7504   0.7534   0.7568   0.7596   0.7657   0.7690   0.7700
  0.7776   0.7793   0.7907   0.7922   0.7978   0.8010   0.8088   0.8211
  0.8232   0.8258   0.8324   0.8381   0.8445   0.8488   0.8547   0.8563
  0.8599   0.8645   0.8669   0.8706   0.8756   0.8828   0.8883   0.8917
  0.8980   0.9017   0.9030   0.9056   0.9117   0.9123   0.9219   0.9262
  0.9284   0.9335   0.9377   0.9401   0.9428   0.9485   0.9554   0.9598
  0.9625   0.9670   0.9723   0.9766   0.9804   0.9860   0.9950   1.0042
  1.0143   1.0166   1.0190   1.0230   1.0278   1.0354   1.0363   1.0412
  1.0434   1.0513   1.0525   1.0580   1.0594   1.0627   1.0661   1.0708
  1.0746   1.0801   1.0837   1.0902   1.0991   1.1038   1.1050   1.1099
  1.1105   1.1146   1.1226   1.1235   1.1264   1.1341   1.1359   1.1475
  1.1487   1.1515   1.1522   1.1596   1.1650   1.1702   1.1732   1.1770
  1.1810   1.1831   1.1879   1.1887   1.1983   1.2017   1.2032   1.2060
  1.2094   1.2144   1.2183   1.2289   1.2309   1.2318   1.2356   1.2396
  1.2417   1.2478   1.2518   1.2527   1.2569   1.2654   1.2675   1.2699
  1.2826   1.2848   1.2928   1.2968   1.3033   1.3084   1.3162   1.3216
  1.3249   1.3258   1.3307   1.3328   1.3361   1.3515   1.3555   1.3578
  1.3660   1.3746   1.3814   1.3853   1.3891   1.3945   1.3996   1.3999
  1.4075   1.4081   1.4167   1.4254   1.4310   1.4332   1.4367   1.4452
  1.4522   1.4542   1.4564   1.4643   1.4679   1.4755   1.4786   1.4816
  1.4864   1.4925   1.4976   1.5014   1.5056   1.5099   1.5146   1.5193
  1.5233   1.5257   1.5306   1.5345   1.5391   1.5418   1.5501   1.5551
  1.5597   1.5606   1.5681   1.5709   1.5773   1.5815   1.5828   1.5881
  1.5936   1.5959   1.5965   1.5991   1.6027   1.6088   1.6132   1.6138
  1.6176   1.6195   1.6228   1.6239   1.6308   1.6314   1.6338   1.6340
  1.6393   1.6437   1.6462   1.6481   1.6518   1.6555   1.6582   1.6607
  1.6618   1.6650   1.6676   1.6699   1.6713   1.6741   1.6755   1.6801
  1.6820   1.6848   1.6876   1.6921   1.6935   1.6953   1.6998   1.7007
  1.7041   1.7068   1.7106   1.7121   1.7175   1.7202   1.7235   1.7270
  1.7273   1.7310   1.7322   1.7347   1.7394   1.7420   1.7431   1.7440
  1.7458   1.7473   1.7506   1.7530   1.7553   1.7583   1.7624   1.7632
  1.7687   1.7732   1.7763   1.7766   1.7812   1.7835   1.7877   1.7904
  1.7919   1.7938   1.7978   1.7992   1.8042   1.8081   1.8146   1.8166
  1.8221   1.8240   1.8259   1.8294   1.8347   1.8355   1.8400   1.8432
  1.8443   1.8532   1.8569   1.8601   1.8673   1.8687   1.8711   1.8731
  1.8768   1.8824   1.8839   1.8878   1.8906   1.8926   1.8991   1.9061
  1.9127   1.9212   1.9219   1.9288   1.9335   1.9352   1.9423   1.9464
  1.9498   1.9519   1.9526   1.9567   1.9599   1.9671   1.9712   1.9735
  1.9795   1.9851   1.9898   1.9922   2.0004   2.0016   2.0067   2.0083
  2.0195   2.0237   2.0292   2.0301   2.0346   2.0356   2.0475   2.0528
  2.0573   2.0602   2.0633   2.0707   2.0726   2.0774   2.0843   2.0869
  2.0926   2.0988   2.1048   2.1059   2.1103   2.1137   2.1205   2.1275
  2.1325   2.1356   2.1425   2.1442   2.1496   2.1543   2.1605   2.1627
  2.1683   2.1741   2.1805   2.1880   2.1994   2.2010   2.2075   2.2123
  2.2147   2.2185   2.2243   2.2256   2.2331   2.2349   2.2372   2.2415
  2.2456   2.2509   2.2584   2.2618   2.2702   2.2781   2.2828   2.2846
  2.2853   2.2905   2.2919   2.2982   2.3057   2.3069   2.3125   2.3153
  2.3267   2.3298   2.3393   2.3478   2.3536   2.3577   2.3786   2.3845
  2.3882   2.3970   2.4053   2.4128   2.4182   2.4221   2.4228   2.4293
  2.4343   2.4374   2.4463   2.4531   2.4602   2.4664   2.4717   2.4802
  2.4841   2.4850   2.4899   2.4914   2.4961   2.5021   2.5100   2.5136
  2.5147   2.5167   2.5257   2.5456   2.5492   2.5541   2.5594   2.5671
  2.5784   2.5870   2.5967   2.5992   2.6108   2.6136   2.6177   2.6247
  2.6315   2.6345   2.6413   2.6414   2.6495   2.6511   2.6628   2.6894
  2.6933   2.6944   2.6967   2.7041   2.7058   2.7132   2.7163   2.7210
  2.7229   2.7300   2.7309   2.7428   2.7506   2.7571   2.7630   2.7639
  2.7702   2.7751   2.7862   2.7954   2.7996   2.8028   2.8082   2.8126
  2.8158   2.8181   2.8305   2.8337   2.8567   2.8627   2.8785   2.9046
  2.9251   2.9288   2.9388   2.9415   2.9478   2.9513   2.9538   3.0158
  3.0175   3.0341   3.0496   3.0648   3.0683   3.0751   3.0782   3.0940
  3.1030   3.1083   3.1170   3.1292   3.1349   3.1404   3.1497   3.1825
  3.1850   3.1993   3.2068   3.2843   3.2930   3.3321   3.3985   3.4254
  3.4343   3.4532   3.4578   3.4662   3.4708   3.4789   3.4854   3.4901
  3.4961   3.5136   3.5212   3.5291   3.5424   3.6107   3.7085   3.7166
 
 Beta MOs
 -- Occupied --
******** -30.0267 -25.8951 -25.8938 -25.8932 -19.1083 -19.1017 -19.0978
-19.0968 -19.0933 -19.0925 -19.0907 -19.0896 -19.0867 -14.3412 -14.3401
-14.3365 -14.3345 -14.3041 -14.2956 -10.2788 -10.2760 -10.2757 -10.2735
-10.2456 -10.2142 -10.2117 -10.2095 -10.2088 -10.2085 -10.2068 -10.2052
-10.2041 -10.1981 -10.1946 -10.1944 -10.1927 -10.1841 -10.1758 -10.1755
-10.1754 -10.1742 -10.1738 -10.1730 -10.1727 -10.1719 -10.1674 -10.1667
-10.1631 -10.1628 -10.1622 -10.1600 -10.1522  -3.3853  -2.1486  -2.1469
 -2.1465  -1.0271  -1.0218  -1.0197  -1.0172  -0.9964  -0.9878  -0.9849
 -0.9477  -0.9457  -0.9105  -0.9088  -0.9080  -0.9070  -0.8912  -0.8880
 -0.8201  -0.8184  -0.7846  -0.7812  -0.7654  -0.7576  -0.7527  -0.7287
 -0.7213  -0.7187  -0.7075  -0.7009  -0.6949  -0.6859  -0.6636  -0.6567
 -0.6323  -0.6210  -0.6004  -0.5985  -0.5843  -0.5807  -0.5791  -0.5763
 -0.5758  -0.5655  -0.5624  -0.5599  -0.5567  -0.5549  -0.5397  -0.5071
 -0.5027  -0.4926  -0.4853  -0.4835  -0.4829  -0.4709  -0.4700  -0.4686
 -0.4664  -0.4645  -0.4569  -0.4553  -0.4495  -0.4490  -0.4448  -0.4443
 -0.4410  -0.4396  -0.4353  -0.4317  -0.4251  -0.4243  -0.4193  -0.4169
 -0.4117  -0.4081  -0.4080  -0.4049  -0.4031  -0.4011  -0.3994  -0.3962
 -0.3939  -0.3916  -0.3881  -0.3859  -0.3839  -0.3779  -0.3768  -0.3731
 -0.3699  -0.3670  -0.3648  -0.3616  -0.3610  -0.3598  -0.3574  -0.3480
 -0.3457  -0.3445  -0.3418  -0.3364  -0.3345  -0.3329  -0.3323  -0.3300
 -0.3271  -0.3222  -0.3168  -0.3152  -0.3127  -0.3112  -0.3105  -0.2961
 -0.2941  -0.2854  -0.2730  -0.2669  -0.2552  -0.2521  -0.2498  -0.2494
 -0.2472  -0.2462  -0.2458  -0.2455  -0.2409  -0.2342  -0.2155  -0.2140
 -0.2110  -0.2101  -0.2005  -0.1709  -0.1682
 -- Virtual --
 -0.0652  -0.0631  -0.0606  -0.0177  -0.0160  -0.0084  -0.0057   0.0030
  0.0240   0.0284   0.0313   0.0443   0.0562   0.0613   0.0645   0.0659
  0.0757   0.0764   0.0805   0.0818   0.0848   0.0885   0.0913   0.0945
  0.0956   0.0982   0.1036   0.1061   0.1083   0.1135   0.1143   0.1154
  0.1187   0.1232   0.1253   0.1275   0.1293   0.1331   0.1388   0.1414
  0.1435   0.1460   0.1476   0.1514   0.1556   0.1568   0.1578   0.1617
  0.1660   0.1698   0.1712   0.1745   0.1757   0.1787   0.1805   0.1834
  0.1868   0.1924   0.1942   0.1955   0.1992   0.2021   0.2056   0.2101
  0.2183   0.2222   0.2239   0.2251   0.2297   0.2308   0.2370   0.2380
  0.2423   0.2457   0.2486   0.2579   0.2603   0.2618   0.2671   0.2681
  0.2712   0.2732   0.2792   0.2809   0.2836   0.2865   0.2926   0.2940
  0.2987   0.3019   0.3068   0.3142   0.3164   0.3171   0.3209   0.3283
  0.3313   0.3320   0.3442   0.3476   0.3590   0.3629   0.3685   0.3754
  0.3777   0.3870   0.4052   0.4082   0.4146   0.4169   0.4185   0.4213
  0.4248   0.4257   0.4290   0.4323   0.4363   0.4385   0.4429   0.4447
  0.4469   0.4525   0.4541   0.4573   0.4618   0.4626   0.4673   0.4716
  0.4728   0.4766   0.4799   0.4838   0.4863   0.4918   0.4927   0.4942
  0.4986   0.5016   0.5077   0.5098   0.5113   0.5165   0.5201   0.5214
  0.5237   0.5278   0.5304   0.5349   0.5394   0.5435   0.5484   0.5512
  0.5534   0.5542   0.5586   0.5604   0.5636   0.5669   0.5684   0.5708
  0.5760   0.5805   0.5831   0.5850   0.5861   0.5894   0.5932   0.5955
  0.5978   0.5989   0.6043   0.6070   0.6076   0.6136   0.6145   0.6178
  0.6199   0.6227   0.6232   0.6275   0.6318   0.6336   0.6357   0.6375
  0.6408   0.6436   0.6449   0.6464   0.6479   0.6500   0.6536   0.6563
  0.6587   0.6600   0.6640   0.6655   0.6682   0.6719   0.6736   0.6755
  0.6776   0.6781   0.6825   0.6845   0.6862   0.6872   0.6890   0.6932
  0.6940   0.6969   0.6994   0.7031   0.7052   0.7060   0.7072   0.7093
  0.7121   0.7131   0.7149   0.7225   0.7247   0.7256   0.7278   0.7292
  0.7302   0.7358   0.7367   0.7430   0.7486   0.7490   0.7517   0.7542
  0.7575   0.7635   0.7674   0.7703   0.7716   0.7786   0.7823   0.7926
  0.7946   0.8042   0.8065   0.8093   0.8227   0.8244   0.8265   0.8349
  0.8408   0.8453   0.8502   0.8578   0.8598   0.8642   0.8656   0.8715
  0.8736   0.8794   0.8861   0.8896   0.8929   0.8999   0.9035   0.9059
  0.9095   0.9126   0.9133   0.9229   0.9282   0.9302   0.9357   0.9385
  0.9424   0.9444   0.9491   0.9600   0.9606   0.9641   0.9681   0.9738
  0.9794   0.9814   0.9889   0.9958   1.0047   1.0153   1.0174   1.0200
  1.0248   1.0289   1.0365   1.0381   1.0429   1.0461   1.0524   1.0545
  1.0591   1.0604   1.0633   1.0673   1.0731   1.0762   1.0819   1.0862
  1.0925   1.1009   1.1052   1.1059   1.1106   1.1130   1.1172   1.1242
  1.1264   1.1283   1.1361   1.1366   1.1490   1.1499   1.1530   1.1537
  1.1613   1.1670   1.1729   1.1745   1.1799   1.1818   1.1846   1.1884
  1.1903   1.1990   1.2029   1.2051   1.2077   1.2120   1.2168   1.2209
  1.2309   1.2325   1.2333   1.2388   1.2434   1.2457   1.2496   1.2554
  1.2590   1.2625   1.2675   1.2710   1.2806   1.2867   1.2897   1.2962
  1.2989   1.3065   1.3127   1.3201   1.3237   1.3273   1.3342   1.3347
  1.3378   1.3437   1.3544   1.3571   1.3620   1.3679   1.3825   1.3845
  1.3890   1.3929   1.3980   1.4032   1.4064   1.4113   1.4137   1.4219
  1.4282   1.4343   1.4349   1.4403   1.4484   1.4529   1.4554   1.4597
  1.4660   1.4698   1.4771   1.4816   1.4861   1.4914   1.4966   1.5005
  1.5069   1.5125   1.5148   1.5206   1.5221   1.5250   1.5312   1.5357
  1.5399   1.5417   1.5461   1.5515   1.5573   1.5620   1.5682   1.5693
  1.5737   1.5798   1.5824   1.5862   1.5927   1.5962   1.5974   1.6006
  1.6029   1.6063   1.6113   1.6138   1.6156   1.6186   1.6235   1.6247
  1.6268   1.6318   1.6330   1.6343   1.6375   1.6407   1.6448   1.6475
  1.6502   1.6538   1.6576   1.6599   1.6628   1.6639   1.6664   1.6704
  1.6708   1.6754   1.6766   1.6793   1.6837   1.6849   1.6885   1.6902
  1.6937   1.6978   1.7012   1.7016   1.7044   1.7059   1.7098   1.7120
  1.7184   1.7207   1.7225   1.7266   1.7282   1.7287   1.7326   1.7339
  1.7361   1.7401   1.7434   1.7439   1.7461   1.7468   1.7487   1.7517
  1.7548   1.7561   1.7595   1.7638   1.7651   1.7724   1.7744   1.7776
  1.7783   1.7829   1.7849   1.7910   1.7918   1.7944   1.7957   1.8004
  1.8016   1.8060   1.8131   1.8171   1.8206   1.8232   1.8270   1.8282
  1.8310   1.8352   1.8389   1.8419   1.8446   1.8481   1.8537   1.8592
  1.8619   1.8692   1.8702   1.8721   1.8746   1.8789   1.8837   1.8853
  1.8888   1.8915   1.8942   1.9002   1.9070   1.9139   1.9221   1.9231
  1.9304   1.9355   1.9372   1.9444   1.9477   1.9508   1.9529   1.9536
  1.9584   1.9630   1.9684   1.9731   1.9754   1.9831   1.9862   1.9902
  1.9959   2.0010   2.0030   2.0077   2.0101   2.0201   2.0249   2.0305
  2.0314   2.0350   2.0370   2.0508   2.0551   2.0591   2.0618   2.0658
  2.0728   2.0737   2.0779   2.0852   2.0879   2.0959   2.0991   2.1052
  2.1066   2.1109   2.1150   2.1213   2.1285   2.1333   2.1367   2.1431
  2.1464   2.1507   2.1557   2.1618   2.1638   2.1699   2.1763   2.1884
  2.1981   2.2000   2.2053   2.2108   2.2130   2.2155   2.2236   2.2257
  2.2275   2.2339   2.2365   2.2388   2.2421   2.2473   2.2542   2.2613
  2.2620   2.2710   2.2797   2.2838   2.2849   2.2859   2.2909   2.2931
  2.3020   2.3064   2.3079   2.3132   2.3167   2.3279   2.3324   2.3399
  2.3492   2.3549   2.3583   2.3788   2.3858   2.3899   2.4032   2.4136
  2.4187   2.4207   2.4243   2.4283   2.4341   2.4366   2.4384   2.4521
  2.4551   2.4622   2.4682   2.4720   2.4823   2.4849   2.4879   2.4902
  2.4932   2.5002   2.5027   2.5107   2.5141   2.5150   2.5185   2.5261
  2.5459   2.5494   2.5542   2.5596   2.5678   2.5786   2.5877   2.5973
  2.5996   2.6116   2.6139   2.6182   2.6267   2.6322   2.6357   2.6422
  2.6457   2.6505   2.6515   2.6640   2.6934   2.6951   2.6958   2.7054
  2.7096   2.7141   2.7174   2.7221   2.7252   2.7294   2.7365   2.7452
  2.7481   2.7524   2.7602   2.7651   2.7694   2.7749   2.7809   2.7912
  2.8001   2.8028   2.8065   2.8134   2.8141   2.8161   2.8237   2.8326
  2.8399   2.8607   2.8670   2.8876   2.9174   2.9279   2.9346   2.9407
  2.9470   2.9568   2.9586   2.9807   3.0495   3.0548   3.0686   3.0736
  3.0800   3.0918   3.1032   3.1051   3.1179   3.1207   3.1310   3.1403
  3.1423   3.1661   3.1784   3.1833   3.1855   3.1915   3.2501   3.2699
  3.2898   3.2975   3.3489   3.4341   3.4405   3.4506   3.4596   3.4644
  3.4693   3.4757   3.4845   3.4923   3.4982   3.5151   3.5329   3.5555
  3.5918   3.6143   3.6401   3.7171   3.7232
 --------------------------------------------------------------
 
          Ground-State Mulliken Net Atomic Charges

     Atom                 Charge (a.u.)    Spin (a.u.)
  --------------------------------------------------------
      1 C                     0.134457       0.001667
      2 C                    -0.033274       0.015707
      3 C                    -0.040433       0.002938
      4 C                    -0.038789       0.009385
      5 C                    -0.031962       0.018285
      6 C                     0.147251       0.005349
      7 H                    -0.048176      -0.000264
      8 O                    -0.464262       0.140050
      9 C                     0.157442       0.000129
     10 O                    -0.361836       0.000982
     11 N                    -0.152457       0.001553
     12 H                     0.110818      -0.000004
     13 C                     0.100000      -0.000085
     14 H                     0.014668       0.000106
     15 H                     0.018710       0.000001
     16 C                    -0.037629       0.000113
     17 H                     0.009114       0.000023
     18 H                     0.015385      -0.000003
     19 C                     0.068479      -0.000004
     20 H                     0.014633       0.000037
     21 H                     0.003404      -0.000001
     22 N                    -0.232808       0.000012
     23 H                     0.087652       0.000004
     24 C                    -0.006582       0.000047
     25 H                     0.007236      -0.000022
     26 H                     0.000539       0.000026
     27 C                     0.030404       0.000031
     28 H                     0.000052      -0.000001
     29 H                     0.042820      -0.000067
     30 C                     0.011666       0.000077
     31 H                    -0.001661       0.000007
     32 H                    -0.000025      -0.000003
     33 C                     0.054541      -0.000059
     34 H                     0.057214      -0.000131
     35 H                     0.025140       0.000174
     36 N                    -0.133352       0.005634
     37 H                     0.109617       0.001159
     38 C                     0.230277       0.003105
     39 O                    -0.361529       0.059657
     40 C                    -0.121604       0.019215
     41 H                    -0.026288      -0.000472
     42 C                     0.069234       0.006751
     43 H                     0.055409      -0.000472
     44 H                     0.010506       0.000606
     45 C                     0.094180       0.000024
     46 O                    -0.358602       0.000377
     47 N                    -0.128059      -0.000091
     48 C                     0.098107      -0.000031
     49 H                     0.132384      -0.000275
     50 C                    -0.038094       0.000024
     51 H                     0.023039       0.000011
     52 H                     0.009216      -0.000012
     53 C                    -0.019054       0.000004
     54 H                    -0.002221      -0.000005
     55 H                     0.018672       0.000011
     56 C                     0.084462      -0.000002
     57 H                    -0.007577       0.000004
     58 H                     0.006490       0.000008
     59 H                     0.001508       0.000000
     60 H                    -0.006350       0.000000
     61 C                     0.173682       0.000471
     62 C                    -0.026186       0.004643
     63 O                    -0.362488       0.000348
     64 C                    -0.037769       0.007241
     65 C                    -0.033629       0.023471
     66 C                    -0.037850       0.010700
     67 C                     0.126238      -0.000849
     68 C                     0.147163       0.007206
     69 H                    -0.048414      -0.000041
     70 O                    -0.460452       0.152433
     71 C                     0.106772      -0.003045
     72 O                    -0.400326       0.072525
     73 H                    -0.076613      -0.000342
     74 O                    -0.447253       0.137060
     75 H                    -0.068098      -0.000548
     76 O                    -0.445230       0.115929
     77 Fe                    0.544015       4.179748
     78 N                    -0.255102       0.000015
     79 H                     0.085438      -0.000002
     80 N                    -0.137278       0.001360
     81 H                     0.109378      -0.000029
     82 C                     0.090310      -0.000029
     83 H                     0.020987       0.000005
     84 H                     0.019137       0.000047
     85 C                     0.005429       0.000116
     86 H                     0.000652       0.000045
     87 H                     0.005172      -0.000008
     88 C                     0.059805       0.000020
     89 H                     0.009529       0.000005
     90 H                     0.008873       0.000026
     91 H                    -0.038872      -0.000032
     92 H                    -0.039118       0.000224
  --------------------------------------------------------
  Sum of atomic charges =    -2.000000
  Sum of spin   charges =     5.000000

 -----------------------------------------------------------------
                    Cartesian Multipole Moments
 -----------------------------------------------------------------
    Charge (ESU x 10^10)
                -9.6064
    Dipole Moment (Debye)
         X       5.2718      Y      12.3969      Z      10.2332
       Tot      16.9172
    Quadrupole Moments (Debye-Ang)
        XX    -353.9617     XY      11.4611     YY    -345.1023
        XZ       1.8938     YZ       7.8934     ZZ    -343.0016
    Octopole Moments (Debye-Ang^2)
       XXX     733.2694    XXY     173.4304    XYY     127.2928
       YYY     154.1310    XXZ     499.2582    XYZ     -59.9640
       YYZ     114.0605    XZZ    -113.1345    YZZ      41.4348
       ZZZ     240.7575
    Hexadecapole Moments (Debye-Ang^3)
      XXXX  -48373.0631   XXXY     -96.2456   XXYY   -9603.5071
      XYYY     284.3324   YYYY   -5559.3806   XXXZ    -295.2112
      XXYZ    -214.0710   XYYZ     119.1008   YYYZ     358.8025
      XXZZ   -9497.6690   XYZZ     288.9484   YYZZ   -1846.3611
      XZZZ     906.8611   YZZZ     172.9997   ZZZZ   -4953.9456
 -----------------------------------------------------------------
 Calculating analytic gradient of the SCF energy
 Gradient of SCF Energy
            1           2           3           4           5           6
    1   0.0249327  -0.0132557  -0.0088416  -0.0514694  -0.0104248   0.0255725
    2  -0.0182441   0.0116899   0.0010113  -0.0104107   0.0203788  -0.0131136
    3   0.0125741  -0.0072873  -0.0006881   0.0429102  -0.0100329  -0.0205234
            7           8           9          10          11          12
    1  -0.0075626   0.0459067   0.0152425   0.0052514  -0.0236262   0.0006157
    2   0.0243008  -0.0129879   0.0275189  -0.0329227   0.0064555   0.0077559
    3  -0.0485229   0.0423859  -0.0910199   0.1091090   0.0224090  -0.0397526
           13          14          15          16          17          18
    1   0.0056372  -0.0191375   0.0026085   0.0122593  -0.0171685  -0.0053364
    2  -0.0030256   0.0160900  -0.0099150  -0.0045082  -0.0082029   0.0065479
    3  -0.0126827   0.0006074   0.0298673  -0.0002485   0.0089210  -0.0190347
           19          20          21          22          23          24
    1  -0.0182623   0.0263157  -0.0101907   0.0197822  -0.0208093  -0.0039433
    2   0.0139365   0.0072132  -0.0221724  -0.0080425  -0.0079283  -0.0113000
    3  -0.0125336   0.0179490   0.0100299   0.0032087  -0.0164330   0.0072656
           25          26          27          28          29          30
    1   0.0166603  -0.0173428  -0.0143403  -0.0138906   0.0259541  -0.0037063
    2   0.0273933  -0.0073236  -0.0171434   0.0181805   0.0153787   0.0073441
    3  -0.0131771  -0.0185775   0.0006198  -0.0063216   0.0241371   0.0079968
           31          32          33          34          35          36
    1   0.0169360  -0.0131733   0.0092308   0.0042292  -0.0162558  -0.0315295
    2  -0.0020411  -0.0260980  -0.0218220   0.0491830  -0.0118456   0.0091703
    3  -0.0285456   0.0039858  -0.0159031   0.0045716   0.0331709  -0.0200685
           37          38          39          40          41          42
    1   0.0041187   0.0188198  -0.0199229  -0.0201860   0.0027792  -0.0038571
    2  -0.0461973  -0.0354950   0.0809937   0.0059285  -0.0472759   0.0031608
    3   0.0086573   0.0079213  -0.0076927  -0.0091131  -0.0087681   0.0144066
           43          44          45          46          47          48
    1   0.0240021  -0.0059901  -0.0257952   0.0138836   0.0400591   0.0090656
    2   0.0161248  -0.0430108   0.0580563  -0.0964786  -0.0131725  -0.0102043
    3  -0.0351067  -0.0077347  -0.0631764   0.0815328   0.0295806  -0.0164191
           49          50          51          52          53          54
    1  -0.0255288   0.0083260  -0.0254033  -0.0068384   0.0052246   0.0080208
    2   0.0511342  -0.0136220   0.0403196  -0.0284644   0.0146859   0.0132268
    3  -0.0428881  -0.0035574   0.0113422   0.0339075   0.0016069   0.0324808
           55          56          57          58          59          60
    1   0.0050836  -0.0141777  -0.0042924  -0.0097430   0.0155820   0.0077209
    2   0.0256237   0.0034043  -0.0228730  -0.0153342  -0.0257617   0.0142733
    3  -0.0261944  -0.0104913   0.0250514  -0.0322851  -0.0005845   0.0277088
           61          62          63          64          65          66
    1  -0.0424038   0.0612930   0.0267402   0.0081351   0.0051586   0.0062208
    2  -0.0303614   0.0084700   0.0394041  -0.0003604   0.0005600   0.0015244
    3  -0.0572081   0.0198316   0.0817564  -0.0040383  -0.0230417  -0.0155304
           67          68          69          70          71          72
    1  -0.0318665  -0.0154138  -0.0093897  -0.0231148   0.0235184   0.0141916
    2  -0.0129389   0.0017103  -0.0256141   0.0354702  -0.0307751   0.0657062
    3   0.0004222   0.0277216  -0.0452791   0.0428956  -0.0020618   0.0292024
           73          74          75          76          77          78
    1   0.0070130   0.0379998   0.0134526  -0.0521992  -0.0018407   0.0397813
    2  -0.0296586   0.0258323   0.0267361  -0.0104286  -0.0186734  -0.0178095
    3   0.0551996  -0.0499086   0.0532235  -0.0372726  -0.0038815  -0.0031994
           79          80          81          82          83          84
    1  -0.0276224   0.0263045  -0.0114236  -0.0098870   0.0068487   0.0151687
    2   0.0347142   0.0127908  -0.0150177  -0.0128333   0.0171854   0.0104506
    3   0.0007776   0.0074346  -0.0357834  -0.0054394   0.0275552  -0.0182474
           85          86          87          88          89          90
    1  -0.0051214   0.0248341  -0.0011520   0.0060634   0.0098551  -0.0289130
    2   0.0046423  -0.0008868  -0.0115493   0.0113572  -0.0267547  -0.0008224
    3  -0.0004335   0.0062062  -0.0201102   0.0117898   0.0006831  -0.0075238
           91          92
    1   0.0264320  -0.0364816
    2  -0.0140535   0.0124403
    3  -0.0277319  -0.0185587
 Max gradient component =       1.091E-01
 RMS gradient           =       2.625E-02
 Computing fast CPCM-SWIG gradient
 Updating gradient with PCM contributions...
 -- total gradient after adding PCM contribution --
---------------------------------------------------
  Atom         X              Y              Z     
---------------------------------------------------
   1       0.000151       0.000005       0.000188
   2      -0.000379      -0.000290      -0.000049
   3       0.000130      -0.000145      -0.000409
   4       0.000108      -0.000384      -0.000009
   5      -0.000301       0.000077       0.000026
   6      -0.000165      -0.000087      -0.000315
   7       0.000091       0.000086       0.000019
   8       0.000436       0.000135      -0.000192
   9       0.000060       0.000141      -0.000118
  10      -0.000038       0.000107       0.000156
  11       0.000081      -0.000675       0.000015
  12      -0.000152       0.000414       0.000109
  13      -0.000323       0.000025      -0.000072
  14       0.000032      -0.000052      -0.000075
  15       0.000028       0.000093       0.000054
  16       0.000330      -0.000767       0.000515
  17      -0.000199       0.000063      -0.000398
  18       0.000357       0.000328       0.000064
  19      -0.000808       0.000310      -0.000487
  20       0.000268      -0.000017      -0.000131
  21       0.000171       0.000076       0.000378
  22       0.000350      -0.000218       0.000286
  23      -0.000052      -0.000086       0.000000
  24      -0.000413      -0.000533       0.000380
  25       0.000054       0.000018       0.000078
  26       0.000092       0.000152      -0.000180
  27      -0.000611       0.000811      -0.000234
  28       0.000016      -0.000204      -0.000055
  29       0.000153      -0.000277       0.000044
  30       0.000242      -0.000171       0.000366
  31      -0.000226       0.000429      -0.000185
  32       0.000389      -0.000261      -0.000224
  33       0.000071      -0.000022      -0.000234
  34       0.000321      -0.000128      -0.000558
  35      -0.000145       0.000732       0.000222
  36      -0.000019      -0.000194       0.000539
  37      -0.000169      -0.000090      -0.000442
  38      -0.000231      -0.000094       0.001144
  39       0.000470       0.000033      -0.001652
  40      -0.000209      -0.000091       0.000378
  41      -0.000033       0.000014      -0.000092
  42      -0.000028       0.000103      -0.000190
  43       0.000083      -0.000077       0.000061
  44       0.000088      -0.000041       0.000009
  45      -0.000210       0.000095       0.000126
  46       0.000194      -0.000071      -0.000076
  47       0.000057       0.000012       0.000230
  48      -0.000044       0.000127      -0.000256
  49      -0.000061       0.000005      -0.000061
  50       0.000119      -0.000080       0.000091
  51       0.000035      -0.000039       0.000097
  52      -0.000035      -0.000046       0.000075
  53       0.000306       0.000503      -0.000039
  54       0.000038       0.000042      -0.000020
  55      -0.000141      -0.000081      -0.000084
  56      -0.000303      -0.000272       0.000156
  57      -0.000150      -0.000084      -0.000115
  58      -0.000009      -0.000197       0.000068
  59      -0.000027       0.000004       0.000001
  60       0.000007      -0.000075       0.000021
  61      -0.000102      -0.000127       0.000031
  62       0.000020       0.000095       0.000039
  63       0.000018      -0.000109       0.000068
  64      -0.000164      -0.000185      -0.000072
  65       0.000209       0.000132      -0.000122
  66       0.000237      -0.000128       0.000041
  67      -0.000056      -0.000078      -0.000166
  68      -0.000014       0.000532       0.000088
  69      -0.000085       0.000104      -0.000044
  70       0.000171       0.000228       0.000094
  71      -0.000273      -0.000032      -0.000099
  72       0.000264       0.000301      -0.000338
  73       0.000125       0.000096       0.000063
  74       0.000019       0.000545       0.000112
  75      -0.000087      -0.000109       0.000093
  76       0.000069      -0.000469      -0.000228
  77      -0.000601      -0.000770       0.001461
  78       0.000097       0.000224      -0.000030
  79       0.000015       0.000002      -0.000071
  80       0.000141       0.000433      -0.000275
  81      -0.000005      -0.000074       0.000028
  82      -0.000129      -0.000097       0.000637
  83       0.000115       0.000088      -0.000138
  84      -0.000040      -0.000144      -0.000188
  85      -0.000372       0.000190      -0.000176
  86       0.000048      -0.000017      -0.000019
  87       0.000161       0.000020       0.000005
  88       0.000153      -0.000228       0.000005
  89       0.000097       0.000084       0.000010
  90      -0.000050       0.000046       0.000016
  91       0.000052       0.000010       0.000062
  92       0.000122       0.000347       0.000169
---------------------------------------------------
 Number of fixed atoms: 0
 Gradient time:  CPU 29223.09 s  wall 1563.00 s

 *****************************************************
             Starting BFGS Algorithm
 *****************************************************
            LIBOPT3 RUN PARAMETERS

  Geometry Optimization Coordinates :
	Delocalized Natural Internal Coordinates

  Step Length Selection Method :
	Eigenvector Following Algorithm

  Convergence Criteria :
	Max Gradient Component    	3.00000000e-04
	Max Displacement Component	1.20000000e-03
	Absolute Energy Difference	1.00000000e-06

  Initial Hessian :
	Approximate Hessian - Simple Internal Coordinate Scaled

  Type of Verification :
	Verify with final updated Hessian
 *****************************************************

	OPTIMIZATION CYCLE:	1

 Scaling Magnitude of Eigenvalues
 	Minimum: -25.00000000	 Maximum: 25.00000000
 270 Hessian Eigenvalues to form next step
   0.10000000   0.10000000   0.10000000   0.10000000   0.10000000
   0.10000000   0.10000000   0.10000000   0.10000000   0.10000000
   0.10000000   0.10000000   0.10000000   0.10000000   0.10000000
   0.10000001   0.10000001   0.10000008   0.10000021   0.10000023
   0.10000029   0.10000150   0.10000224   0.10000261   0.10000541
   0.10000710   0.10001077   0.10001296   0.10001524   0.10001832
   0.10002085   0.10002242   0.10003683   0.10004325   0.10008234
   0.10010103   0.10028816   0.10033348   0.10044244   0.10061857
   0.10069573   0.10119492   0.10128882   0.10146455   0.10173442
   0.10178450   0.10220606   0.10529255   0.10547973   0.10720157
   0.10801878   0.10924793   0.11077294   0.11335827   0.11390114
   0.11464049   0.11716723   0.11847635   0.11870985   0.11953156
   0.11986540   0.12013616   0.12141104   0.12176013   0.12272773
   0.12319166   0.12393907   0.12401927   0.12472441   0.12600485
   0.12605112   0.12686983   0.12709119   0.12734027   0.12747768
   0.12774591   0.12786730   0.12893143   0.12980584   0.13030639
   0.13116948   0.13324241   0.13513266   0.13613901   0.13905964
   0.13990955   0.14043938   0.14297353   0.14409252   0.14895621
   0.15037413   0.15117162   0.15213614   0.15221890   0.15317789
   0.15337934   0.15590758   0.15661460   0.15698313   0.15750869
   0.15825396   0.15847631   0.15938124   0.16087029   0.16160204
   0.16197491   0.16246976   0.16951232   0.17034445   0.17056968
   0.17580923   0.17612862   0.17638438   0.17728370   0.17781876
   0.17826913   0.17959188   0.17993732   0.18045739   0.18157195
   0.18190622   0.18239031   0.18339272   0.18385816   0.18527613
   0.18758633   0.19161902   0.19412057   0.19486638   0.19495176
   0.19593479   0.19688712   0.19734237   0.19772358   0.19840090
   0.19955117   0.19965811   0.19971186   0.19985192   0.19988817
   0.19989197   0.19990037   0.19992913   0.19994573   0.19995181
   0.19995898   0.19996288   0.19997986   0.19998137   0.19999126
   0.19999562   0.19999889   0.19999963   0.19999994   0.19999997
   0.20000000   0.20000000   0.20000000   0.20000000   0.20000000
   0.20000000   0.20000000   0.20000000   0.20000000   0.20000000
   0.20423012   0.20918564   0.21476185   0.22322421   0.25237555
   0.27178367   0.30921591   0.39362342   0.40504211   0.40997206
   0.42793068   0.43861342   0.44697393   0.45421914   0.45675826
   0.46420920   0.46612633   0.46826678   0.46959460   0.48808029
   0.49000701   0.49087118   0.49201678   0.49453648   0.49640574
   0.49846002   0.49897245   0.49969997   0.49992095   0.49999888
   0.50000000   0.50000000   0.50000000   0.50000000   0.50000000
[...]
  14      -0.000005       0.000019      -0.000010
  15      -0.000027       0.000030       0.000022
  16      -0.000043      -0.000015      -0.000018
  17       0.000020       0.000016       0.000045
  18      -0.000024       0.000011       0.000003
  19       0.000101      -0.000034      -0.000031
  20      -0.000017       0.000002       0.000023
  21      -0.000037       0.000005      -0.000025
  22      -0.000073       0.000085       0.000072
  23       0.000033      -0.000058      -0.000007
  24       0.000017      -0.000032      -0.000019
  25      -0.000009       0.000016       0.000017
  26      -0.000004      -0.000005       0.000005
  27      -0.000047       0.000055      -0.000056
  28       0.000031       0.000003       0.000037
  29       0.000018      -0.000036       0.000020
  30       0.000019       0.000008      -0.000039
  31       0.000002      -0.000003       0.000015
  32      -0.000001       0.000013       0.000028
  33      -0.000058      -0.000004       0.000052
  34       0.000018       0.000016      -0.000007
  35      -0.000001      -0.000011      -0.000025
  36       0.000012      -0.000021       0.000012
  37      -0.000007       0.000023       0.000035
  38      -0.000020      -0.000009      -0.000123
  39       0.000046       0.000022       0.000052
  40      -0.000014       0.000004       0.000058
  41       0.000007      -0.000004      -0.000006
  42      -0.000002      -0.000010       0.000060
  43      -0.000002       0.000009       0.000011
  44      -0.000004      -0.000008      -0.000031
  45      -0.000064       0.000015       0.000009
  46       0.000043      -0.000024      -0.000006
  47      -0.000027      -0.000021       0.000004
  48       0.000021       0.000059      -0.000050
  49       0.000027      -0.000005      -0.000002
  50       0.000007       0.000037       0.000081
  51      -0.000015      -0.000012       0.000000
  52       0.000003       0.000005       0.000009
  53       0.000003       0.000037      -0.000073
  54       0.000011      -0.000029      -0.000001
  55      -0.000016      -0.000014      -0.000025
  56       0.000038       0.000018      -0.000001
  57      -0.000021      -0.000019      -0.000008
  58       0.000004      -0.000024       0.000018
  59      -0.000007      -0.000003      -0.000013
  60       0.000013      -0.000008       0.000007
  61      -0.000014       0.000050      -0.000032
  62       0.000007      -0.000103       0.000044
  63       0.000001      -0.000009       0.000020
  64      -0.000036       0.000030      -0.000066
  65       0.000026       0.000061      -0.000031
  66       0.000031      -0.000018       0.000006
  67      -0.000021      -0.000006       0.000039
  68      -0.000003      -0.000021      -0.000008
  69      -0.000013      -0.000014       0.000000
  70      -0.000016       0.000022      -0.000046
  71       0.000026       0.000006      -0.000049
  72       0.000015      -0.000037       0.000029
  73       0.000024       0.000008      -0.000002
  74      -0.000009       0.000026      -0.000039
  75      -0.000005      -0.000013       0.000006
  76       0.000004       0.000016      -0.000037
  77       0.000010      -0.000014       0.000046
  78      -0.000046      -0.000012       0.000035
  79       0.000013       0.000001      -0.000012
  80       0.000034      -0.000029       0.000021
  81      -0.000014      -0.000002      -0.000004
  82      -0.000019       0.000032      -0.000067
  83       0.000006      -0.000006       0.000007
  84      -0.000011      -0.000015      -0.000013
  85       0.000001      -0.000023       0.000055
  86      -0.000005      -0.000018      -0.000005
  87       0.000019       0.000004      -0.000010
  88       0.000016       0.000036      -0.000066
  89       0.000000      -0.000002       0.000005
  90      -0.000015      -0.000035      -0.000001
  91       0.000011       0.000011       0.000022
  92      -0.000005      -0.000006       0.000001
---------------------------------------------------
 Number of fixed atoms: 0
 Gradient time:  CPU 32437.66 s  wall 1886.56 s

     Step 47	:
        Energy is -3553.6016235991
                            Maximum         Tolerance       Converged?
         Gradient           5.51618156e-05	3.00000000e-04	true
         Displacement       2.96998855e-03	1.20000000e-03	false
         Energy change      9.84354301e-07	1.00000000e-06	true

	 Optimization Converged in 47 cycles

 *****************************************************
             End of BFGS Algorithm
 *****************************************************
		----------------------------------
		   Verification of Optimization
		----------------------------------

 Eigenvalues of Hessian in Optimization Verification
   0.00272085   0.00378438   0.00408423   0.00700815   0.01018922
   0.01107622   0.01749200   0.02614733   0.02789929   0.04002115
   0.05598766   0.06574201   0.08855329   0.09999554   0.10000341
   0.10000692   0.10000936   0.10001202   0.10001642   0.10001732
   0.10002259   0.10002662   0.10003107   0.10004146   0.10005406
   0.10006367   0.10008163   0.10009581   0.10013477   0.10014627
   0.10019155   0.10022738   0.10025382   0.10030569   0.10036891
   0.10039567   0.10046095   0.10050520   0.10066187   0.10076353
   0.10092303   0.10104739   0.10124343   0.10170284   0.10185711
   0.10213225   0.10232423   0.10325019   0.10377703   0.10430952
   0.10538895   0.10610269   0.10756266   0.10863786   0.11024929
   0.11164214   0.11264408   0.11407902   0.11489383   0.11777524
   0.11865753   0.11958833   0.11986125   0.12097102   0.12181815
   0.12235641   0.12318513   0.12372905   0.12411635   0.12551269
   0.12617481   0.12667353   0.12692439   0.12748783   0.12768457
   0.12828879   0.12890658   0.12943271   0.12997918   0.13065733
   0.13220003   0.13283626   0.13414806   0.13709540   0.13772677
   0.14020089   0.14247135   0.14305251   0.14827573   0.14886941
   0.15104240   0.15147018   0.15217733   0.15222532   0.15277527
   0.15407018   0.15544119   0.15624782   0.15751102   0.15754606
   0.15801435   0.15924329   0.15967721   0.16029997   0.16104517
   0.16200472   0.16713948   0.16972722   0.17120655   0.17173633
   0.17613223   0.17660136   0.17696368   0.17794527   0.17874893
   0.17945086   0.18027064   0.18058148   0.18080754   0.18196349
   0.18281395   0.18370223   0.18479941   0.18702599   0.18915042
   0.19006782   0.19101934   0.19393886   0.19522010   0.19589980
   0.19623766   0.19738338   0.19748858   0.19789403   0.19870097
   0.19935981   0.19952375   0.19963794   0.19979157   0.19983564
   0.19987207   0.19992064   0.19999038   0.20003087   0.20008254
   0.20012085   0.20022184   0.20028574   0.20064949   0.20101714
   0.20122149   0.20166098   0.20239597   0.20324895   0.20496717
   0.20710890   0.21059036   0.21094091   0.21502494   0.21685760
   0.22022111   0.22880711   0.23307490   0.23741016   0.24855220
   0.25083025   0.25836047   0.26862089   0.27923927   0.30706662
   0.32106685   0.38036796   0.38622006   0.40270250   0.40911871
   0.42564394   0.42784067   0.43427685   0.44304956   0.44955586
   0.45218250   0.45541373   0.45980328   0.46589580   0.46694641
   0.46882900   0.47711006   0.48350920   0.48830884   0.48884570
   0.49218026   0.49423814   0.49494033   0.49552078   0.49739715
   0.49808493   0.49852979   0.49892649   0.49942969   0.49948759
   0.49977790   0.49989190   0.49990066   0.49994193   0.49997296
   0.49997801   0.49998758   0.49999691   0.49999987   0.50000000
   0.50000000   0.50000000   0.50000000   0.50000000   0.50000000
   0.50000000   0.50000000   0.50000000   0.50000000   0.50000000
   0.50000000   0.50000000   0.50000000   0.50000000   0.50000000
   0.50000000   0.50000000   0.50000000   0.50000000   0.50000000
   0.50000014   0.50000083   0.50000254   0.50000376   0.50000566
   0.50000691   0.50002490   0.50003010   0.50005327   0.50010137
   0.50012538   0.50014890   0.50019242   0.50024505   0.50028568
   0.50042423   0.50048086   0.50068811   0.50080996   0.50082572
   0.50091690   0.50126720   0.50190126   0.50247054   0.50358225
   0.50547417   0.50620417   0.50742541   0.50868818   0.51050240
   0.51206915   0.51429097   0.51667687   0.52487887   0.53629655
   0.55257200   0.55542823   0.57732134   0.58806775   0.60871504


 Found a minimum
		---------------------------------
		       End of Verification
		---------------------------------

 Final energy is -3553.601623599062

	******************************
	**  OPTIMIZATION CONVERGED  **
	******************************
 Adding empirical dispersion correction 
 ----------------------------------------------------------------
 Doing -D3(BJ) with
 s6  =   1.00000
 s8  =   1.98890
 a1  =   0.39810
 a2  =   4.42110
 -D3 energy without 3body term =     -0.2234403051 hartrees
 ----------------------------------------------------------------
             Standard Nuclear Orientation (Angstroms)
    I     Atom           X                Y                Z
 ----------------------------------------------------------------
    1      C       2.4405725599    -1.9814561338     0.4456620908
    2      C       3.7124607093    -2.5555825391     0.6139318435
    3      C       4.7494533155    -2.2760246083    -0.2842448486
    4      C       4.5365510048    -1.4198760546    -1.3776733691
    5      C       3.2518088910    -0.8590655464    -1.5720332979
    6      C       2.2062666238    -1.1150724130    -0.6844450652
    7      H       3.8816140989    -3.2174117353     1.4678212287
    8      O       0.9869957569    -0.5946489432    -0.7862129996
    9      C       5.6090401143    -1.0147804245    -2.3267675113
   10      O       5.3589548544    -0.3847355220    -3.3698823391
   11      N       6.8940110931    -1.3392963132    -1.9858389377
   12      H       7.0542384159    -1.7025820046    -1.0535396814
   13      C       8.0502800095    -0.7590057097    -2.6537332336
   14      H       8.7936970522    -1.5494918968    -2.8479886896
   15      H       7.6963330834    -0.3804950604    -3.6220926638
   16      C       8.6868232330     0.3680128494    -1.8288600849
   17      H       9.5859700526     0.7208803611    -2.3615192343
   18      H       9.0428247380    -0.0525259652    -0.8725837770
   19      C       7.7267610435     1.5547512036    -1.5401740809
   20      H       6.7397064913     1.3417510797    -1.9814368748
   21      H       8.1009755221     2.4581177607    -2.0484833855
   22      N       7.5097843184     1.9088773084    -0.1346927481
   23      H       8.4035084533     2.1852397657     0.2789894523
   24      C       6.4278115581     1.4057540754     2.0233655348
   25      H       6.2228804251     0.5699119643     2.7152070980
   26      H       7.2379322169     1.9984816581     2.4823164177
   27      C       6.9270073042     0.8462028559     0.6868082605
   28      H       7.6256791328     0.0050145006     0.8779404744
   29      H       6.0797700833     0.4174094757     0.1289556376
   30      C       5.1712182442     2.2719807999     1.8669737408
   31      H       5.0512873114     2.9511227751     2.7272762226
   32      H       5.3031348652     2.9041227764     0.9711787906
   33      C       3.9113334818     1.4223859838     1.7211252782
   34      H       3.6802962110     0.9193393147     2.6721723602
   35      H       4.0616214002     0.6231358629     0.9728264358
   36      N       2.7668151251     2.2418347932     1.3375511272
   37      H       2.9635394438     3.0658774188     0.7781603064
   38      C       1.5086312258     1.7326849589     1.2635598661
   39      O       1.2846289165     0.6078542157     1.8186292214
   40      C       0.5107276614     2.5135538201     0.5774888994
   41      H       0.7879550585     3.5009090068     0.2071632545
   42      C      -1.7962106563     2.9316444403    -0.3299865252
   43      H      -2.6181596604     3.1110209259     0.3866145257
   44      H      -1.3713937071     3.9032792437    -0.6094345194
   45      C      -2.4342159192     2.3354994279    -1.5929582235
   46      O      -2.6399502950     3.0450311002    -2.5862441512
   47      N      -2.7770167630     1.0309413794    -1.5151334940
   48      C      -3.3201540689     0.2833647146    -2.6400758449
   49      H      -2.4544737096     0.5315133090    -0.6823088959
   50      C      -4.8331105168     0.0489173135    -2.5736021111
   51      H      -2.8044242260    -0.6894205855    -2.6702657696
   52      H      -3.0652567616     0.8344053794    -3.5578580963
   53      C      -5.6862128841     1.3163125527    -2.5873940015
   54      H      -5.1033093769    -0.5814939252    -3.4418718049
   55      H      -5.0706445658    -0.5475501749    -1.6789772123
   56      C      -7.1925674999     1.0234432612    -2.7046374293
   57      H      -5.3925402335     1.9553710804    -3.4394262157
   58      H      -5.4875500701     1.9092776284    -1.6774239948
   59      H      -7.7339282812     1.9820685411    -2.8011364099
   60      H      -7.3691136867     0.4685184421    -3.6438862555
   61      C      -6.3615069332    -1.9266248758     0.7264856799
   62      C      -5.0006693554    -1.9028585365     1.3210056051
   63      O      -6.5597065896    -2.2990160156    -0.4469313986
   64      C      -4.7467213081    -1.6941572546     2.6879605576
   65      C      -3.9086188501    -2.0049592559     0.4294731535
   66      C      -3.4350668647    -1.5351200383     3.1538245676
   67      C      -2.5997482939    -1.8163478808     0.8661915219
   68      C      -2.3463402414    -1.5511806114     2.2614147562
   69      H      -3.2420814999    -1.3587135232     4.2157024697
   70      O      -1.5408522626    -1.8130374995     0.0588827827
   71      C      -0.7723854625     2.0462285159     0.3611734653
   72      O      -1.2048451853     0.8757782888     0.7028440900
   73      H       3.0912353932    -0.1905752547    -2.4196352316
   74      O       1.4239976541    -2.1758601173     1.2664974056
   75      H      -4.1006944446    -2.1747635469    -0.6297058952
   76      O      -1.0930379379    -1.3092469372     2.6025375180
   77      Fe     -0.0340602513    -0.8293981199     0.9358173903
   78      N      -7.8246704596     0.2650692237    -1.6228442045
   79      H      -7.3816508184    -0.6534840272    -1.5334218480
   80      N      -7.3883332476    -1.4784845165     1.5090974102
   81      H      -7.1351386006    -1.0033457200     2.3685850184
   82      C      -8.6886612599    -1.1386051693     0.9480223200
   83      H      -8.8079385946    -1.7300647696     0.0309893316
   84      H      -9.4752993579    -1.4476932621     1.6544948231
   85      C      -8.8307773645     0.3601708842     0.6430491970
   86      H      -9.8345051235     0.5240638283     0.2137236454
   87      H      -8.7849289175     0.9263949807     1.5904976488
   88      C      -7.7774425843     0.9230076440    -0.3165860201
   89      H      -7.9872172932     1.9957445104    -0.4686388054
   90      H      -6.7767655761     0.8723175995     0.1628453212
   91      H      -5.5654060376    -1.6586423234     3.4104908054
   92      H       5.7191339499    -2.7513250891    -0.1222698714
 ----------------------------------------------------------------
 Nuclear Repulsion Energy =        7421.57682226 hartrees
 There are      194 alpha and      189 beta electrons

Z-matrix Print:
$molecule
-2 6
Fe
O  1 2.001745
C  2 1.331548 1 109.525092
C  3 1.392638 2 123.890829 1 157.927805 0
H  4 1.089765 3 119.442191 2 0.842329 0
C  4 1.413446 3 121.235850 2 -175.413185 0
C  6 1.405920 4 118.975587 3 -4.225931 0
H  7 1.092500 6 120.830128 4 -177.037599 0
C  7 1.400985 6 120.615315 4 2.575072 0
H  9 1.093594 7 120.425034 6 179.124134 0
C  9 1.407828 7 120.793632 6 1.412180 0
O  11 1.321236 9 124.598744 7 174.670558 0
C  6 1.485226 4 117.017970 3 171.452509 0
O  13 1.246943 6 121.809819 4 14.850258 0
N  13 1.366632 6 116.997593 4 -163.020965 0
H  15 1.014191 13 116.830528 6 11.049655 0
C  15 1.456426 13 121.785398 6 164.374764 0
H  17 1.097725 15 107.043784 13 26.418383 0
H  17 1.101562 15 108.967059 13 142.834669 0
C  17 1.536078 15 112.754722 13 -95.272814 0
H  20 1.103925 17 107.830001 15 179.364962 0
H  20 1.104704 17 109.025743 15 -64.600692 0
C  20 1.532057 17 114.784231 15 57.572711 0
H  23 1.103580 20 108.223124 17 179.308935 0
H  23 1.110756 20 109.406645 17 -65.664966 0
N  23 1.463360 20 111.824330 17 60.554955 0
H  26 1.023720 23 108.148469 20 -76.721752 0
C  26 1.464569 23 114.368381 20 160.322112 0
H  28 1.105124 26 107.386298 23 -175.236424 0
H  28 1.105145 26 107.592146 23 -61.001112 0
C  28 1.539033 26 117.690794 23 62.143457 0
H  31 1.104138 28 109.942946 26 -60.370922 0
H  31 1.104807 28 108.149170 26 -175.785721 0
C  31 1.527830 28 112.914071 26 62.535422 0
H  34 1.101158 31 109.646998 28 -63.782623 0
H  34 1.106489 31 109.219375 28 52.008171 0
C  34 1.532456 31 115.085424 28 172.487252 0
H  37 1.100428 34 109.966686 31 -59.004948 0
H  37 1.101454 34 109.168122 31 -177.464124 0
N  37 1.455804 34 114.417315 31 62.095606 0
H  40 1.023259 37 119.728207 34 89.727339 0
C  40 1.351089 37 123.091582 34 -103.262787 0
O  42 1.237893 40 123.882300 37 5.702025 0
C  42 1.535427 40 115.653999 37 -176.301820 0
H  44 1.096647 42 107.179202 40 167.435349 0
H  44 1.105121 42 106.698960 40 -77.033212 0
C  44 1.519829 42 115.327379 40 42.262500 0
O  47 1.293721 44 114.959953 42 -56.402699 0
C  47 1.382593 44 119.961021 42 123.473225 0
H  49 1.090351 47 119.268308 44 -2.767141 0
C  49 1.440924 47 122.278504 44 178.070249 0
O  51 1.274176 49 124.337844 47 -5.741051 0
N  51 1.359314 49 117.642494 47 175.220911 0
H  53 1.015217 51 116.961814 49 -9.658576 0
C  53 1.458954 51 122.008505 49 -165.401633 0
H  55 1.100420 53 108.619368 51 -52.629519 0
H  55 1.105142 53 109.564468 51 63.271395 0
C  55 1.526562 53 111.097961 51 -173.984616 0
H  58 1.102605 55 109.121563 53 67.025543 0
H  58 1.104289 55 109.857126 53 -50.058739 0
C  58 1.534221 55 111.806742 53 -169.878090 0
H  61 1.103747 58 109.897696 55 -159.536136 0
H  61 1.104207 58 109.830803 55 -42.821004 0
C  61 1.532540 58 112.583670 55 79.218941 0
H  64 1.101306 61 109.471157 58 -47.339366 0
H  64 1.110077 61 109.361358 58 -163.120860 0
N  64 1.464162 61 110.730701 58 71.296385 0
H  67 1.022865 64 108.478899 61 71.670729 0
C  67 1.465559 64 114.937322 61 -166.197190 0
H  69 1.101979 67 107.343951 64 62.636978 0
H  69 1.102037 67 107.129875 64 176.272026 0
C  69 1.553514 67 117.019170 64 -60.666575 0
H  72 1.103044 69 110.433374 67 -114.628423 0
H  72 1.103655 69 109.233027 67 1.697234 0
C  72 1.534853 69 113.859484 67 123.330732 0
H  75 1.098303 72 110.758997 69 58.882045 0
H  75 1.102394 72 109.971505 69 178.185957 0
N  75 1.455946 72 112.054377 69 -60.027869 0
H  78 1.013327 75 116.063639 72 -56.315612 0
C  78 1.368464 75 122.473874 72 100.879619 0
O  80 1.244021 78 121.182361 75 12.423123 0
C  80 1.488326 78 116.950514 75 -166.087068 0
C  82 1.404957 80 123.570155 78 -10.060710 0
H  83 1.091983 82 121.013828 80 -4.654319 0
C  83 1.400081 82 120.577843 80 176.326384 0
H  85 1.093507 83 120.478792 82 -179.630242 0
C  85 1.405573 83 120.787917 82 -0.339213 0
O  87 1.320980 85 124.184936 83 -178.506196 0
C  82 1.415220 80 117.305104 78 167.300208 0
H  89 1.091372 82 118.878279 80 2.220182 0
C  89 1.395174 82 121.347227 80 -175.986532 0
O  91 1.329593 89 124.520520 82 178.144408 0
$end

 -----------------------------------------------------------------------
                  END OF GEOMETRY OPTIMIZER USING LIBOPT3               
 -----------------------------------------------------------------------
 Total job time:  179269.13s(wall), 2811389.59s(cpu) 
 Tue Jan 30 15:42:02 2024

        *************************************************************
        *                                                           *
        *  Thank you very much for using Q-Chem.  Have a nice day.  *
        *                                                           *
        *************************************************************


