
Running Job 1 of 1 C_FePBstar_enol_ccL_2pentet_b3lypD3bj_ccpVDZ_pcmH2O_opt_2.in
qchem C_FePBstar_enol_ccL_2pentet_b3lypD3bj_ccpVDZ_pcmH2O_opt_2.in_2493046.0 /data/scratch/C_FePBstar_enol_ccL_2pentet_b3lypD3bj_ccpVDZ_pcmH2O_opt_220230814184228/ 0
/opt/qchem/6.0.1/exe/qcprog.exe_s C_FePBstar_enol_ccL_2pentet_b3lypD3bj_ccpVDZ_pcmH2O_opt_2.in_2493046.0 /data/scratch/C_FePBstar_enol_ccL_2pentet_b3lypD3bj_ccpVDZ_pcmH2O_opt_220230814184228/
                  Welcome to Q-Chem
     A Quantum Leap Into The Future Of Chemistry


 Q-Chem 6.0, Q-Chem, Inc., Pleasanton, CA (2022)

 E. Epifanovsky,  A. T. B. Gilbert,  Xintian Feng,  Joonho Lee,  Yuezhi Mao,  
 N. Mardirossian,  P. Pokhilko,  A. White,  M. Wormit,  M. P. Coons,  
 A. L. Dempwolff,  Zhengting Gan,  D. Hait,  P. R. Horn,  L. D. Jacobson,  
 I. Kaliman,  J. Kussmann,  A. W. Lange,  Ka Un Lao,  D. S. Levine,  Jie Liu,  
 S. C. McKenzie,  A. F. Morrison,  K. Nanda,  F. Plasser,  D. R. Rehn,  
 M. L. Vidal,  Zhi-Qiang You,  Ying Zhu,  B. Alam,  B. Albrecht,  
 A. Aldossary,  E. Alguire,  J. H. Andersen,  V. Athavale,  D. Barton,  
 K. Begam,  A. Behn,  N. Bellonzi,  Y. A. Bernard,  E. J. Berquist,  
 H. Burton,  A. Carreras,  K. Carter-Fenk,  Romit Chakraborty,  
 Chandrima Chakravarty,  Junhan Chen,  A. D. Chien,  K. D. Closser,  
 V. Cofer-Shabica,  L. Cunha,  S. Dasgupta,  Jia Deng,  M. de Wergifosse,  
 M. Diedenhofen,  Hainam Do,  S. Ehlert,  Po-Tung Fang,  S. Fatehi,  
 Qingguo Feng,  T. Friedhoff,  B. Ganoe,  J. Gayvert,  Qinghui Ge,  
 G. Gidofalvi,  M. Goldey,  J. Gomes,  C. Gonzalez-Espinoza,  S. Gulania,  
 A. Gunina,  J. A. Gyamfi,  M. W. D. Hanson-Heine,  P. H. P. Harbach,  
 A. W. Hauser,  M. F. Herbst,  M. Hernandez Vera,  M. Hodecker,  
 Z. C. Holden,  S. Houck,  Xunkun Huang,  Kerwin Hui,  B. C. Huynh,  
 K. Ikeda,  M. Ivanov,  Hyunjun Ji,  Zuxin Jin,  Hanjie Jiang,  B. Kaduk,  
 S. Kaehler,  R. Kang,  K. Khistyaev,  Jaehoon Kim,  Yongbin Kim,  
 P. Klunzinger,  Z. Koczor-Benda,  Joong Hoon Koh,  D. Kosenkov,  
 Saikiran Kotaru,  L. Koulias,  T. Kowalczyk,  C. M. Krauter,  K. Kue,  
 A. Kunitsa,  T. Kus,  A. Landau,  K. V. Lawler,  D. Lefrancois,  S. Lehtola,  
 Rain Li,  Shaozhi Li,  Yi-Pei Li,  Jiashu Liang,  M. Liebenthal,  
 Hung-Hsuan Lin,  You-Sheng Lin,  Fenglai Liu,  Kuan-Yu Liu,  
 M. Loipersberger,  A. Luenser,  C. Malbon,  A. Manjanath,  P. Manohar,  
 E. Mansoor,  S. F. Manzer,  Shan-Ping Mao,  A. V. Marenich,  T. Markovich,  
 S. Mason,  F. Matz,  S. A. Maurer,  P. F. McLaughlin,  M. F. S. J. Menger,  
 J.-M. Mewes,  S. A. Mewes,  P. Morgante,  Mohammad Mostafanejad,  
 J. W. Mullinax,  K. J. Oosterbaan,  G. Paran,  V. Parravicini,  
 Alexander C. Paul,  Suranjan K. Paul,  F. Pavosevic,  Zheng Pei,  S. Prager,  
 E. I. Proynov,  E. Ramos,  B. Rana,  A. E. Rask,  A. Rettig,  R. M. Richard,  
 F. Rob,  E. Rossomme,  T. Scheele,  M. Scheurer,  M. Schneider,  
 P. E. Schneider,  N. Sergueev,  S. M. Sharada,  Hengyuan Shen,  
 W. Skomorowski,  D. W. Small,  C. J. Stein,  Yingli Su,  Yu-Chuan Su,  
 E. J. Sundstrom,  Zhen Tao,  J. Thirman,  Hung-Yi Tsai,  T. Tsuchimochi,  
 N. M. Tubman,  C. Utku,  S. P. Veccham,  O. Vydrov,  J. Wenzel,  
 Jonathan Wong,  J. Witte,  A. Yamada,  Chou-Hsun Yang,  Kun Yao,  
 S. Yeganeh,  S. R. Yost,  A. Zech,  F. Zeller,  Igor Ying Zhang,  
 Xing Zhang,  Yu Zhang,  D. Zuev,  A. Aspuru-Guzik,  A. T. Bell,  
 N. A. Besley,  K. B. Bravaya,  B. R. Brooks,  D. Casanova,  Jeng-Da Chai,  
 Hsing-Ta Chen,  S. Coriani,  C. J. Cramer,  A. E. DePrince, III,  
 R. A. DiStasio Jr.,  A. Dreuw,  B. D. Dunietz,  T. R. Furlani,  
 W. A. Goddard III,  S. Grimme,  S. Hammes-Schiffer,  T. Head-Gordon,  
 W. J. Hehre,  Chao-Ping Hsu,  T.-C. Jagau,  Yousung Jung,  A. Klamt,  
 Jing Kong,  D. S. Lambrecht,  Xiangyuan Li,  WanZhen Liang,  N. J. Mayhall,  
 C. W. McCurdy,  J. B. Neaton,  T. Neudecker,  C. Ochsenfeld,  
 J. A. Parkhill,  R. Peverati,  V. A. Rassolov,  Haisheng Ren,  Yihan Shao,  
 L. V. Slipchenko,  R. P. Steele,  J. E. Subotnik,  A. J. W. Thom,  
 A. Tkatchenko,  D. G. Truhlar,  T. Van Voorhis,  Fan Wang,  
 T. A. Wesolowski,  K. B. Whaley,  H. L. Woodcock III,  P. M. Zimmerman,  
 S. Faraji,  P. M. W. Gill,  M. Head-Gordon,  J. M. Herbert,  A. I. Krylov

 Contributors to earlier versions of Q-Chem not listed above: 
 R. D. Adamson,  B. Austin,  R. Baer,  J. Baker,  G. J. O. Beran,  
 K. Brandhorst,  S. T. Brown,  E. F. C. Byrd,  Arup K. Chakraborty,  
 G. K. L. Chan,  Chun-Min Chang,  Yunqing Chen,  C.-L. Cheng,  
 Siu Hung Chien,  D. M. Chipman,  D. L. Crittenden,  H. Dachsel,  
 R. J. Doerksen,  A. D. Dutoi,  R. G. Edgar,  J. Fosso-Tande,  
 L. Fusti-Molnar,  D. Ghosh,  A. Ghysels,  A. Golubeva-Zadorozhnaya,  
 J. Gonthier,  M. S. Gordon,  S. R. Gwaltney,  G. Hawkins,  J. E. Herr,  
 A. Heyden,  S. Hirata,  E. G. Hohenstein,  G. Kedziora,  F. J. Keil,  
 C. Kelley,  Jihan Kim,  R. A. King,  R. Z. Khaliullin,  P. P. Korambath,  
 W. Kurlancheek,  A. Laurent,  A. M. Lee,  M. S. Lee,  S. V. Levchenko,  
 Ching Yeh Lin,  D. Liotard,  E. Livshits,  R. C. Lochan,  I. Lotan,  
 L. A. Martinez-Martinez,  P. E. Maslen,  N. Nair,  D. P. O'Neill,  
 D. Neuhauser,  E. Neuscamman,  C. M. Oana,  R. Olivares-Amaya,  R. Olson,  
 T. M. Perrine,  B. Peters,  P. A. Pieniazek,  A. Prociuk,  Y. M. Rhee,  
 J. Ritchie,  M. A. Rohrdanz,  E. Rosta,  N. J. Russ,  H. F. Schaefer III,  
 M. W. Schmidt,  N. E. Schultz,  S. Sharma,  N. Shenvi,  C. D. Sherrill,  
 A. C. Simmonett,  A. Sodt,  T. Stein,  D. Stuck,  K. S. Thanthiriwatte,  
 V. Vanovschi,  L. Vogt,  Tao Wang,  A. Warshel,  M. A. Watson,  
 C. F. Williams,  Q. Wu,  X. Xu,  Jun Yang,  W. Zhang,  Yan Zhao

   Please cite Q-Chem as follows:
  "Software for the frontiers of quantum chemistry:
   An overview of developments in the Q-Chem 5 package"
   J. Chem. Phys. 155, 084801 (2021)
   https://doi.org/10.1063/5.0055522 (open access)

 Q-Chem 6.0.2 for Intel X86 EM64T Linux

 Parts of Q-Chem use Armadillo 9.900.5 (Nocturnal Misbehaviour).
 http://arma.sourceforge.net/

 Q-Chem begins on Mon Aug 14 18:42:29 2023  

 Host: 
0

     Scratch files written to /data/scratch/C_FePBstar_enol_ccL_2pentet_b3lypD3bj_ccpVDZ_pcmH2O_opt_220230814184228//
 Dec722 |scratch|qcdevops|jenkins|workspace|build_RNUM 8907   
 Processing $rem in /opt/qchem/6.0.1/config/preferences:
 Processing $rem in /home/sgardner/.qchemrc:
 Symmetry turned off for PCM/SM12/SMD calculation

 Checking the input file for inconsistencies... 	...done.

--------------------------------------------------------------
User input:
--------------------------------------------------------------
$molecule
-2 6
C    3.3137058   -1.2889382   -1.7311538
C    4.6092516   -1.6536602   -1.3681396
C    5.7130237   -1.3931784   -2.2173898
C    5.4822832   -0.7690635   -3.4539996
C    4.1891490   -0.4007354   -3.8427571
C    3.0902354   -0.6240922   -2.9901460
H    4.7364252   -2.0837615   -0.3727523
O    1.8520295   -0.2407581   -3.2455609
C    7.1112092   -1.5925002   -1.7560912
O    8.0744064   -1.0085514   -2.2779170
N    7.2889129   -2.4336737   -0.6802677
H    6.4410063   -2.8569696   -0.3203559
C    8.2831396   -2.1435703    0.3509298
H    8.6675823   -3.0905765    0.7603932
H    9.1199681   -1.6243696   -0.1384668
C    7.6689271   -1.2882351    1.4692442
H    8.3604300   -1.2551174    2.3296040
H    6.7504775   -1.7903467    1.8217429
C    7.3343643    0.1443943    1.0172291
H    6.9206674    0.1235967   -0.0023535
H    8.2724008    0.7248789    0.9593643
N    6.3736020    0.8783837    1.8400867
H    6.6234723    0.7846985    2.8277031
C    4.0136474    1.4431874    2.3385748
H    2.9800198    1.0874374    2.1823916
H    4.1906391    1.4128568    3.4289337
C    4.9792051    0.4702810    1.6516548
H    4.7664645   -0.5604393    2.0073391
H    4.7860467    0.4554952    0.5655898
C    4.1503384    2.8876292    1.8420029
H    3.6544790    3.5810024    2.5433954
H    5.2198746    3.1503121    1.8297848
C    3.5788133    3.1236006    0.4393214
H    3.8735656    2.3176559   -0.2455624
H    3.9789355    4.0675964    0.0330457
N    2.1241937    3.2005751    0.4177764
H    1.7031249    4.0507418    0.7757750
C    1.3010448    2.3410174   -0.2400424
O    1.7982547    1.2976131   -0.7720589
C   -0.0974657    2.6679884   -0.2794250
H   -0.4570009    3.4837738    0.3493233
C   -2.4803884    2.3255550   -0.9001581
H   -2.8070231    1.7497904   -0.0185452
H   -2.6145315    3.3918515   -0.6707507
C   -3.3564795    1.9903715   -2.0943309
O   -3.4857165    2.7715822   -3.0448550
N   -3.9916984    0.7981240   -2.0155539
C   -4.9773986    0.3310346   -2.9783427
H   -3.8019052    0.1985798   -1.2168428
C   -6.3371968    0.1079130   -2.3081581
H   -4.6225653   -0.6071798   -3.4342798
H   -5.0361401    1.0959120   -3.7655059
C   -6.9628804    1.3970769   -1.7710382
H   -7.0178906   -0.3720613   -3.0331161
H   -6.2011766   -0.6131443   -1.4859942
C   -8.1001593    1.1638080   -0.7611856
H   -7.3524236    1.9999986   -2.6104280
H   -6.1788993    2.0068310   -1.2922794
H   -8.5578694    2.1400933   -0.5175838
H   -8.8908792    0.5560544   -1.2360152
C   -5.1542676   -1.7929523    0.9018051
C   -3.9262339   -2.5025470   -1.1206983
O   -6.2345695   -2.2000794    0.4238545
C   -3.8844690   -1.8799438    0.1364611
C   -2.8112893   -2.4970255   -1.9641225
C   -2.6665545   -1.2903459    0.5699290
C   -1.6200093   -1.8612658   -1.5723574
C   -1.5325172   -1.2911259   -0.2456639
H   -2.5752364   -0.7897729    1.5370449
O   -0.5609483   -1.7303994   -2.3452577
C   -0.9984377    2.0112167   -1.1017724
O   -0.7103154    1.1135082   -1.9823013
H    4.0161173    0.0990670   -4.8001829
O    2.2505073   -1.4723587   -0.9584515
H   -2.8626835   -2.9448813   -2.9605131
O   -0.3677196   -0.7538525    0.0935145
Fe    0.7099001   -0.3570411   -1.5731262
N   -7.7441001    0.5091685    0.5021521
H   -7.4452732   -0.4528878    0.3193238
N   -5.1076910   -1.2287593    2.1413656
H   -4.2308884   -0.8237663    2.4452408
C   -6.3055815   -0.8007180    2.8483113
H   -7.1398067   -1.3919275    2.4494747
H   -6.1991940   -1.0495185    3.9162198
C   -6.5847733    0.7021221    2.6944362
H   -7.5259906    0.9258302    3.2262895
H   -5.7834607    1.2704958    3.1996923
C   -6.6801221    1.1868153    1.2453991
H   -6.9059185    2.2675901    1.2534813
H   -5.6838458    1.0866470    0.7654016
H   -4.8650240   -2.9535602   -1.4413228
H    6.3368817   -0.5493978   -4.0964346
$end

$rem
BASIS  =  gen
DFT_D  =  D3_BJ
GUI  =  2
JOB_TYPE  =  Optimization
METHOD  =  B3LYP
SCF_CONVERGENCE  =  8
SOLVENT_METHOD  =  PCM
$end

$pcm
THEORY  CPCM
$end

$solvent
DIELECTRIC  78.39
$end

$van_der_waals
26   2.44
$end

!----------------------------------------------------------------------
! Basis Set Exchange
! Basis set: cc-pVDZ
!----------------------------------------------------------------------

$rem
BASIS GEN
PURECART 11
$end

$basis
H     0
S   4   1.00
1.301000D+01           1.968500D-02
1.962000D+00           1.379770D-01
4.446000D-01           4.781480D-01
1.220000D-01           5.012400D-01
S   1   1.00
1.220000D-01           1.000000D+00
P   1   1.00
7.270000D-01           1.0000000
****
C     0
S   9   1.00
6.665000D+03           6.920000D-04
1.000000D+03           5.329000D-03
2.280000D+02           2.707700D-02
6.471000D+01           1.017180D-01
2.106000D+01           2.747400D-01
7.495000D+00           4.485640D-01
2.797000D+00           2.850740D-01
5.215000D-01           1.520400D-02
1.596000D-01          -3.191000D-03
S   9   1.00
6.665000D+03          -1.460000D-04
1.000000D+03          -1.154000D-03
2.280000D+02          -5.725000D-03
6.471000D+01          -2.331200D-02
2.106000D+01          -6.395500D-02
7.495000D+00          -1.499810D-01
2.797000D+00          -1.272620D-01
5.215000D-01           5.445290D-01
1.596000D-01           5.804960D-01
S   1   1.00
1.596000D-01           1.000000D+00
P   4   1.00
9.439000D+00           3.810900D-02
2.002000D+00           2.094800D-01
5.456000D-01           5.085570D-01
1.517000D-01           4.688420D-01
P   1   1.00
1.517000D-01           1.000000D+00
D   1   1.00
5.500000D-01           1.0000000
****
N     0
S   9   1.00
9.046000D+03           7.000000D-04
1.357000D+03           5.389000D-03
3.093000D+02           2.740600D-02
8.773000D+01           1.032070D-01
2.856000D+01           2.787230D-01
1.021000D+01           4.485400D-01
3.838000D+00           2.782380D-01
7.466000D-01           1.544000D-02
2.248000D-01          -2.864000D-03
S   9   1.00
9.046000D+03          -1.530000D-04
1.357000D+03          -1.208000D-03
3.093000D+02          -5.992000D-03
8.773000D+01          -2.454400D-02
2.856000D+01          -6.745900D-02
1.021000D+01          -1.580780D-01
3.838000D+00          -1.218310D-01
7.466000D-01           5.490030D-01
2.248000D-01           5.788150D-01
S   1   1.00
2.248000D-01           1.000000D+00
P   4   1.00
1.355000D+01           3.991900D-02
2.917000D+00           2.171690D-01
7.973000D-01           5.103190D-01
2.185000D-01           4.622140D-01
P   1   1.00
2.185000D-01           1.000000D+00
D   1   1.00
8.170000D-01           1.0000000
****
O     0
S   9   1.00
1.172000D+04           7.100000D-04
1.759000D+03           5.470000D-03
4.008000D+02           2.783700D-02
1.137000D+02           1.048000D-01
3.703000D+01           2.830620D-01
1.327000D+01           4.487190D-01
5.025000D+00           2.709520D-01
1.013000D+00           1.545800D-02
3.023000D-01          -2.585000D-03
S   9   1.00
1.172000D+04          -1.600000D-04
1.759000D+03          -1.263000D-03
4.008000D+02          -6.267000D-03
1.137000D+02          -2.571600D-02
3.703000D+01          -7.092400D-02
1.327000D+01          -1.654110D-01
5.025000D+00          -1.169550D-01
1.013000D+00           5.573680D-01
3.023000D-01           5.727590D-01
S   1   1.00
3.023000D-01           1.000000D+00
P   4   1.00
1.770000D+01           4.301800D-02
3.854000D+00           2.289130D-01
1.046000D+00           5.087280D-01
2.753000D-01           4.605310D-01
P   1   1.00
2.753000D-01           1.000000D+00
D   1   1.00
1.185000D+00           1.0000000
****
Fe     0
S   20   1.00
4.316265D+06           8.048803D-06
6.463424D+05           6.258306D-05
1.470897D+05           3.290239D-04
4.166152D+04           1.387355D-03
1.359077D+04           5.023256D-03
4.905750D+03           1.610140D-02
1.912746D+03           4.590034D-02
7.926043D+02           1.136154D-01
3.448065D+02           2.283869D-01
1.558999D+02           3.221159D-01
7.223091D+01           2.383661D-01
3.272506D+01           7.404667D-02
1.566762D+01           9.214197D-02
7.503483D+00           9.339790D-02
3.312223D+00           1.573965D-02
1.558471D+00          -4.186682D-04
6.839140D-01           5.376318D-05
1.467570D-01          -3.816654D-05
7.058300D-02           4.319603D-05
3.144900D-02          -3.401019D-06
S   20   1.00
4.316265D+06          -4.155954D-06
6.463424D+05          -3.231401D-05
1.470897D+05          -1.699525D-04
4.166152D+04          -7.171369D-04
1.359077D+04          -2.603625D-03
4.905750D+03          -8.399109D-03
1.912746D+03          -2.434109D-02
7.926043D+02          -6.251948D-02
3.448065D+02          -1.365929D-01
1.558999D+02          -2.312707D-01
7.223091D+01          -2.383734D-01
3.272506D+01           3.123837D-02
1.566762D+01           5.086818D-01
7.503483D+00           4.987695D-01
3.312223D+00           9.033552D-02
1.558471D+00          -6.005337D-03
6.839140D-01           2.312454D-04
1.467570D-01          -5.643680D-04
7.058300D-02           4.992260D-04
3.144900D-02          -1.015293D-04
S   20   1.00
4.316265D+06           9.532178D-07
6.463424D+05           7.414605D-06
1.470897D+05           3.898393D-05
4.166152D+04           1.647152D-04
1.359077D+04           5.985980D-04
4.905750D+03           1.942390D-03
1.912746D+03           5.687237D-03
7.926043D+02           1.501329D-02
3.448065D+02           3.452455D-02
1.558999D+02           6.495820D-02
7.223091D+01           7.716194D-02
3.272506D+01          -1.873411D-02
1.566762D+01          -3.009185D-01
7.503483D+00          -4.554661D-01
3.312223D+00           1.286463D-01
1.558471D+00           7.183316D-01
6.839140D-01           4.051743D-01
1.467570D-01           2.168227D-02
7.058300D-02          -8.343566D-03
3.144900D-02           3.658979D-03
S   20   1.00
4.316265D+06          -2.063008D-07
6.463424D+05          -1.604169D-06
1.470897D+05          -8.438437D-06
4.166152D+04          -3.563151D-05
1.359077D+04          -1.295998D-04
4.905750D+03          -4.201534D-04
1.912746D+03          -1.231954D-03
7.926043D+02          -3.248922D-03
3.448065D+02          -7.493717D-03
1.558999D+02          -1.410102D-02
7.223091D+01          -1.691600D-02
3.272506D+01           4.218996D-03
1.566762D+01           6.833810D-02
7.503483D+00           1.098201D-01
3.312223D+00          -4.009005D-02
1.558471D+00          -2.174739D-01
6.839140D-01          -2.465135D-01
1.467570D-01           2.731435D-01
7.058300D-02           5.748321D-01
3.144900D-02           3.012713D-01
S   20   1.00
4.316265D+06          -4.009367D-07
6.463424D+05          -3.189255D-06
1.470897D+05          -1.623079D-05
4.166152D+04          -7.157920D-05
1.359077D+04          -2.463958D-04
4.905750D+03          -8.544907D-04
1.912746D+03          -2.307593D-03
7.926043D+02          -6.728292D-03
3.448065D+02          -1.366165D-02
1.558999D+02          -3.062240D-02
7.223091D+01          -2.631137D-02
3.272506D+01          -9.760183D-03
1.566762D+01           1.801906D-01
7.503483D+00           1.529634D-01
3.312223D+00           5.505413D-02
1.558471D+00          -9.551364D-01
6.839140D-01           2.586813D-01
1.467570D-01           1.834049D+00
7.058300D-02          -9.333240D-01
3.144900D-02          -6.981605D-01
S   1   1.00
3.144900D-02           1.000000D+00
P   16   1.00
1.774569D+04           4.100000D-05
4.200721D+03           3.690000D-04
1.364429D+03           2.129000D-03
5.220806D+02           9.369000D-03
2.214595D+02           3.309700D-02
1.009096D+02           9.443100D-02
4.840115D+01           2.080770D-01
2.398536D+01           3.323330D-01
1.218250D+01           3.329870D-01
6.242298D+00           1.568430D-01
3.110944D+00           2.154900D-02
1.509958D+00          -2.095000D-03
7.108450D-01          -1.739000D-03
2.731900D-01          -3.000000D-04
1.042330D-01           2.900000D-05
3.829100D-02          -1.100000D-05
P   16   1.00
1.774569D+04          -1.500000D-05
4.200721D+03          -1.300000D-04
1.364429D+03          -7.510000D-04
5.220806D+02          -3.329000D-03
2.214595D+02          -1.191200D-02
1.009096D+02          -3.493300D-02
4.840115D+01          -7.998900D-02
2.398536D+01          -1.346360D-01
1.218250D+01          -1.385980D-01
6.242298D+00           3.027800D-02
3.110944D+00           3.332160D-01
1.509958D+00           4.561530D-01
7.108450D-01           2.850510D-01
2.731900D-01           4.614400D-02
1.042330D-01          -3.249000D-03
3.829100D-02           1.357000D-03
P   16   1.00
1.774569D+04           5.000000D-06
4.200721D+03           4.200000D-05
1.364429D+03           2.410000D-04
5.220806D+02           1.085000D-03
2.214595D+02           3.831000D-03
1.009096D+02           1.142300D-02
4.840115D+01           2.579200D-02
2.398536D+01           4.481800D-02
1.218250D+01           4.459800D-02
6.242298D+00          -1.117700D-02
3.110944D+00          -1.381340D-01
1.509958D+00          -1.882850D-01
7.108450D-01          -1.073990D-01
2.731900D-01           4.448630D-01
1.042330D-01           6.402390D-01
3.829100D-02           6.445700D-02
P   16   1.00
1.774569D+04           3.000000D-06
4.200721D+03           2.900000D-05
1.364429D+03           1.650000D-04
5.220806D+02           7.340000D-04
2.214595D+02           2.626000D-03
1.009096D+02           7.725000D-03
4.840115D+01           1.773300D-02
2.398536D+01           3.005500D-02
1.218250D+01           3.109400D-02
6.242298D+00          -1.004800D-02
3.110944D+00          -8.830600D-02
1.509958D+00          -1.298240D-01
7.108450D-01          -7.693700D-02
2.731900D-01           2.126610D-01
1.042330D-01           5.730610D-01
3.829100D-02           3.696510D-01
P   1   1.00
3.829100D-02           1.000000D+00
D   8   1.00
1.133440D+02           3.530000D-03
3.364140D+01           2.578400D-02
1.233100D+01           9.911900D-02
4.994780D+00           2.390730D-01
2.072800D+00           3.571990D-01
8.307530D-01           3.621880D-01
3.091780D-01           2.364610D-01
1.001300D-01           6.011800D-02
D   8   1.00
1.133440D+02          -3.890000D-03
3.364140D+01          -2.844200D-02
1.233100D+01          -1.124290D-01
4.994780D+00          -2.742570D-01
2.072800D+00          -3.155460D-01
8.307530D-01           5.710900D-02
3.091780D-01           5.636040D-01
1.001300D-01           3.846370D-01
D   1   1.00
1.001300D-01           1.000000D+00
F   2   1.00
3.224300D+00           4.222490D-01
7.758000D-01           7.714680D-01
****
$end


--------------------------------------------------------------
 Adding empirical dispersion correction 
 ----------------------------------------------------------------
 Doing -D3(BJ) with
 s6  =   1.00000
 s8  =   1.98890
 a1  =   0.39810
 a2  =   4.42110
 -D3 energy without 3body term =     -0.2270233252 hartrees
 ----------------------------------------------------------------
             Standard Nuclear Orientation (Angstroms)
    I     Atom           X                Y                Z
 ----------------------------------------------------------------
    1      C       3.3137058000    -1.2889382000    -1.7311538000
    2      C       4.6092516000    -1.6536602000    -1.3681396000
    3      C       5.7130237000    -1.3931784000    -2.2173898000
    4      C       5.4822832000    -0.7690635000    -3.4539996000
    5      C       4.1891490000    -0.4007354000    -3.8427571000
    6      C       3.0902354000    -0.6240922000    -2.9901460000
    7      H       4.7364252000    -2.0837615000    -0.3727523000
    8      O       1.8520295000    -0.2407581000    -3.2455609000
    9      C       7.1112092000    -1.5925002000    -1.7560912000
   10      O       8.0744064000    -1.0085514000    -2.2779170000
   11      N       7.2889129000    -2.4336737000    -0.6802677000
   12      H       6.4410063000    -2.8569696000    -0.3203559000
   13      C       8.2831396000    -2.1435703000     0.3509298000
   14      H       8.6675823000    -3.0905765000     0.7603932000
   15      H       9.1199681000    -1.6243696000    -0.1384668000
   16      C       7.6689271000    -1.2882351000     1.4692442000
   17      H       8.3604300000    -1.2551174000     2.3296040000
   18      H       6.7504775000    -1.7903467000     1.8217429000
   19      C       7.3343643000     0.1443943000     1.0172291000
   20      H       6.9206674000     0.1235967000    -0.0023535000
   21      H       8.2724008000     0.7248789000     0.9593643000
   22      N       6.3736020000     0.8783837000     1.8400867000
   23      H       6.6234723000     0.7846985000     2.8277031000
   24      C       4.0136474000     1.4431874000     2.3385748000
   25      H       2.9800198000     1.0874374000     2.1823916000
   26      H       4.1906391000     1.4128568000     3.4289337000
   27      C       4.9792051000     0.4702810000     1.6516548000
   28      H       4.7664645000    -0.5604393000     2.0073391000
   29      H       4.7860467000     0.4554952000     0.5655898000
   30      C       4.1503384000     2.8876292000     1.8420029000
   31      H       3.6544790000     3.5810024000     2.5433954000
   32      H       5.2198746000     3.1503121000     1.8297848000
   33      C       3.5788133000     3.1236006000     0.4393214000
   34      H       3.8735656000     2.3176559000    -0.2455624000
   35      H       3.9789355000     4.0675964000     0.0330457000
   36      N       2.1241937000     3.2005751000     0.4177764000
   37      H       1.7031249000     4.0507418000     0.7757750000
   38      C       1.3010448000     2.3410174000    -0.2400424000
   39      O       1.7982547000     1.2976131000    -0.7720589000
   40      C      -0.0974657000     2.6679884000    -0.2794250000
   41      H      -0.4570009000     3.4837738000     0.3493233000
   42      C      -2.4803884000     2.3255550000    -0.9001581000
   43      H      -2.8070231000     1.7497904000    -0.0185452000
   44      H      -2.6145315000     3.3918515000    -0.6707507000
   45      C      -3.3564795000     1.9903715000    -2.0943309000
   46      O      -3.4857165000     2.7715822000    -3.0448550000
   47      N      -3.9916984000     0.7981240000    -2.0155539000
   48      C      -4.9773986000     0.3310346000    -2.9783427000
   49      H      -3.8019052000     0.1985798000    -1.2168428000
   50      C      -6.3371968000     0.1079130000    -2.3081581000
   51      H      -4.6225653000    -0.6071798000    -3.4342798000
   52      H      -5.0361401000     1.0959120000    -3.7655059000
   53      C      -6.9628804000     1.3970769000    -1.7710382000
   54      H      -7.0178906000    -0.3720613000    -3.0331161000
   55      H      -6.2011766000    -0.6131443000    -1.4859942000
   56      C      -8.1001593000     1.1638080000    -0.7611856000
   57      H      -7.3524236000     1.9999986000    -2.6104280000
   58      H      -6.1788993000     2.0068310000    -1.2922794000
   59      H      -8.5578694000     2.1400933000    -0.5175838000
   60      H      -8.8908792000     0.5560544000    -1.2360152000
   61      C      -5.1542676000    -1.7929523000     0.9018051000
   62      C      -3.9262339000    -2.5025470000    -1.1206983000
   63      O      -6.2345695000    -2.2000794000     0.4238545000
   64      C      -3.8844690000    -1.8799438000     0.1364611000
   65      C      -2.8112893000    -2.4970255000    -1.9641225000
   66      C      -2.6665545000    -1.2903459000     0.5699290000
   67      C      -1.6200093000    -1.8612658000    -1.5723574000
   68      C      -1.5325172000    -1.2911259000    -0.2456639000
   69      H      -2.5752364000    -0.7897729000     1.5370449000
   70      O      -0.5609483000    -1.7303994000    -2.3452577000
   71      C      -0.9984377000     2.0112167000    -1.1017724000
   72      O      -0.7103154000     1.1135082000    -1.9823013000
   73      H       4.0161173000     0.0990670000    -4.8001829000
   74      O       2.2505073000    -1.4723587000    -0.9584515000
   75      H      -2.8626835000    -2.9448813000    -2.9605131000
   76      O      -0.3677196000    -0.7538525000     0.0935145000
   77      Fe      0.7099001000    -0.3570411000    -1.5731262000
   78      N      -7.7441001000     0.5091685000     0.5021521000
   79      H      -7.4452732000    -0.4528878000     0.3193238000
   80      N      -5.1076910000    -1.2287593000     2.1413656000
   81      H      -4.2308884000    -0.8237663000     2.4452408000
   82      C      -6.3055815000    -0.8007180000     2.8483113000
   83      H      -7.1398067000    -1.3919275000     2.4494747000
   84      H      -6.1991940000    -1.0495185000     3.9162198000
   85      C      -6.5847733000     0.7021221000     2.6944362000
   86      H      -7.5259906000     0.9258302000     3.2262895000
   87      H      -5.7834607000     1.2704958000     3.1996923000
   88      C      -6.6801221000     1.1868153000     1.2453991000
   89      H      -6.9059185000     2.2675901000     1.2534813000
   90      H      -5.6838458000     1.0866470000     0.7654016000
   91      H      -4.8650240000    -2.9535602000    -1.4413228000
   92      H       6.3368817000    -0.5493978000    -4.0964346000
 ----------------------------------------------------------------
 Nuclear Repulsion Energy =        7483.76309169 hartrees
 There are      194 alpha and      189 beta electrons
 Requested basis set is non-standard
 There are 432 shells and 930 basis functions

 Total QAlloc Memory Limit   8000 MB
 Mega-Array Size       188 MB
 MEM_STATIC part       192 MB

 -----------------------------------------------------------------------
                STARTING GEOMETRY OPTIMIZER USING LIBOPT3
                by Peter F. McLaughlin, Yu Zhang, Evgeny Epifanovsky
 -----------------------------------------------------------------------

              Initial Energy and Gradient Calculation
   -- Checking Topology for Ill-Behaving Coordinates --

 -------------------------------------------
   Coordinate       |  Removed | Additions 
 -------------------------------------------
	Bonds                     0          0
	Angles                    3          0
	Torsions                  6          6
	Co-Linear Type5s          0          6
	Co-Linear Type6s          0          6
 -------------------------------------------

 ** Ill-Behaving Topology Definitions (No action needed.) **

  Ill-Defined Angles Removed: 
   8  77  76,  39  77  70,  72  77  74

  Ill-Defined Torsions Removed: 
   1  74  77  72,   6   8  77  76,  38  39  77  70,  67  70  77  39,  68  76  77   8
  71  72  77  74

     Done Checking Topology
 Adding empirical dispersion correction 
 ----------------------------------------------------------------
 Doing -D3(BJ) with
 s6  =   1.00000
 s8  =   1.98890
 a1  =   0.39810
 a2  =   4.42110
 -D3 energy without 3body term =     -0.2270233252 hartrees
 ----------------------------------------------------------------
             Standard Nuclear Orientation (Angstroms)
    I     Atom           X                Y                Z
 ----------------------------------------------------------------
    1      C       3.3137058000    -1.2889382000    -1.7311538000
    2      C       4.6092516000    -1.6536602000    -1.3681396000
    3      C       5.7130237000    -1.3931784000    -2.2173898000
    4      C       5.4822832000    -0.7690635000    -3.4539996000
    5      C       4.1891490000    -0.4007354000    -3.8427571000
    6      C       3.0902354000    -0.6240922000    -2.9901460000
    7      H       4.7364252000    -2.0837615000    -0.3727523000
    8      O       1.8520295000    -0.2407581000    -3.2455609000
    9      C       7.1112092000    -1.5925002000    -1.7560912000
   10      O       8.0744064000    -1.0085514000    -2.2779170000
   11      N       7.2889129000    -2.4336737000    -0.6802677000
   12      H       6.4410063000    -2.8569696000    -0.3203559000
   13      C       8.2831396000    -2.1435703000     0.3509298000
   14      H       8.6675823000    -3.0905765000     0.7603932000
   15      H       9.1199681000    -1.6243696000    -0.1384668000
   16      C       7.6689271000    -1.2882351000     1.4692442000
   17      H       8.3604300000    -1.2551174000     2.3296040000
   18      H       6.7504775000    -1.7903467000     1.8217429000
   19      C       7.3343643000     0.1443943000     1.0172291000
   20      H       6.9206674000     0.1235967000    -0.0023535000
   21      H       8.2724008000     0.7248789000     0.9593643000
   22      N       6.3736020000     0.8783837000     1.8400867000
   23      H       6.6234723000     0.7846985000     2.8277031000
   24      C       4.0136474000     1.4431874000     2.3385748000
   25      H       2.9800198000     1.0874374000     2.1823916000
   26      H       4.1906391000     1.4128568000     3.4289337000
   27      C       4.9792051000     0.4702810000     1.6516548000
   28      H       4.7664645000    -0.5604393000     2.0073391000
   29      H       4.7860467000     0.4554952000     0.5655898000
   30      C       4.1503384000     2.8876292000     1.8420029000
   31      H       3.6544790000     3.5810024000     2.5433954000
   32      H       5.2198746000     3.1503121000     1.8297848000
   33      C       3.5788133000     3.1236006000     0.4393214000
   34      H       3.8735656000     2.3176559000    -0.2455624000
   35      H       3.9789355000     4.0675964000     0.0330457000
   36      N       2.1241937000     3.2005751000     0.4177764000
   37      H       1.7031249000     4.0507418000     0.7757750000
   38      C       1.3010448000     2.3410174000    -0.2400424000
   39      O       1.7982547000     1.2976131000    -0.7720589000
   40      C      -0.0974657000     2.6679884000    -0.2794250000
   41      H      -0.4570009000     3.4837738000     0.3493233000
   42      C      -2.4803884000     2.3255550000    -0.9001581000
   43      H      -2.8070231000     1.7497904000    -0.0185452000
   44      H      -2.6145315000     3.3918515000    -0.6707507000
   45      C      -3.3564795000     1.9903715000    -2.0943309000
   46      O      -3.4857165000     2.7715822000    -3.0448550000
   47      N      -3.9916984000     0.7981240000    -2.0155539000
   48      C      -4.9773986000     0.3310346000    -2.9783427000
   49      H      -3.8019052000     0.1985798000    -1.2168428000
   50      C      -6.3371968000     0.1079130000    -2.3081581000
   51      H      -4.6225653000    -0.6071798000    -3.4342798000
   52      H      -5.0361401000     1.0959120000    -3.7655059000
   53      C      -6.9628804000     1.3970769000    -1.7710382000
   54      H      -7.0178906000    -0.3720613000    -3.0331161000
   55      H      -6.2011766000    -0.6131443000    -1.4859942000
   56      C      -8.1001593000     1.1638080000    -0.7611856000
   57      H      -7.3524236000     1.9999986000    -2.6104280000
   58      H      -6.1788993000     2.0068310000    -1.2922794000
   59      H      -8.5578694000     2.1400933000    -0.5175838000
   60      H      -8.8908792000     0.5560544000    -1.2360152000
   61      C      -5.1542676000    -1.7929523000     0.9018051000
   62      C      -3.9262339000    -2.5025470000    -1.1206983000
   63      O      -6.2345695000    -2.2000794000     0.4238545000
   64      C      -3.8844690000    -1.8799438000     0.1364611000
   65      C      -2.8112893000    -2.4970255000    -1.9641225000
   66      C      -2.6665545000    -1.2903459000     0.5699290000
   67      C      -1.6200093000    -1.8612658000    -1.5723574000
   68      C      -1.5325172000    -1.2911259000    -0.2456639000
   69      H      -2.5752364000    -0.7897729000     1.5370449000
   70      O      -0.5609483000    -1.7303994000    -2.3452577000
   71      C      -0.9984377000     2.0112167000    -1.1017724000
   72      O      -0.7103154000     1.1135082000    -1.9823013000
   73      H       4.0161173000     0.0990670000    -4.8001829000
   74      O       2.2505073000    -1.4723587000    -0.9584515000
   75      H      -2.8626835000    -2.9448813000    -2.9605131000
   76      O      -0.3677196000    -0.7538525000     0.0935145000
   77      Fe      0.7099001000    -0.3570411000    -1.5731262000
   78      N      -7.7441001000     0.5091685000     0.5021521000
   79      H      -7.4452732000    -0.4528878000     0.3193238000
   80      N      -5.1076910000    -1.2287593000     2.1413656000
   81      H      -4.2308884000    -0.8237663000     2.4452408000
   82      C      -6.3055815000    -0.8007180000     2.8483113000
   83      H      -7.1398067000    -1.3919275000     2.4494747000
   84      H      -6.1991940000    -1.0495185000     3.9162198000
   85      C      -6.5847733000     0.7021221000     2.6944362000
   86      H      -7.5259906000     0.9258302000     3.2262895000
   87      H      -5.7834607000     1.2704958000     3.1996923000
   88      C      -6.6801221000     1.1868153000     1.2453991000
   89      H      -6.9059185000     2.2675901000     1.2534813000
   90      H      -5.6838458000     1.0866470000     0.7654016000
   91      H      -4.8650240000    -2.9535602000    -1.4413228000
   92      H       6.3368817000    -0.5493978000    -4.0964346000
 ----------------------------------------------------------------
 Nuclear Repulsion Energy =        7483.76309169 hartrees
 There are      194 alpha and      189 beta electrons
 Using C-PCM dielectric factor f(eps) = (eps-1)/eps = 0.987243
No default van der Waals radius is available for Z = 26
	Found R = 2.4400 A in the $van_der_waals section
 Discretize the solute cavity surface with Lebedev spheres
	Using 110 Lebedev grid points for each H atom
	Using 194 Lebedev grid points for other atoms
	Atomic van der Waals radii (Bondi set) will be scaled by 1.20
 Using smooth SwiG surface discretization
 Remove points where switching function is < 1.0e-08
 Keep 5398 surface tesserae and discard 8838 interior tesserae
 Molecular Surface Area = 660.655 Angst**2

 Requested basis set is non-standard
 There are 432 shells and 930 basis functions
 A cutoff of  1.0D-12 yielded  58339 shell pairs
 There are    251329 function pairs (    277951 Cartesian)
 Smallest overlap matrix eigenvalue = 2.03E-04

 Scale SEOQF with 1.000000e-02/1.000000e-01/1.000000e-01

 Standard Electronic Orientation quadrupole field applied
 Nucleus-field energy     =    -0.0000000354 hartrees
 ================ Generating on-the-fly SAD Guess ================
 Attempting to make child job directory: /data/scratch/C_FePBstar_enol_ccL_2pentet_b3lypD3bj_ccpVDZ_pcmH2O_opt_220230814184228//Frg1/
 Attempting to make child job directory: /data/scratch/C_FePBstar_enol_ccL_2pentet_b3lypD3bj_ccpVDZ_pcmH2O_opt_220230814184228//Frg2/
 Attempting to make child job directory: /data/scratch/C_FePBstar_enol_ccL_2pentet_b3lypD3bj_ccpVDZ_pcmH2O_opt_220230814184228//Frg3/
 Attempting to make child job directory: /data/scratch/C_FePBstar_enol_ccL_2pentet_b3lypD3bj_ccpVDZ_pcmH2O_opt_220230814184228//Frg4/
 Attempting to make child job directory: /data/scratch/C_FePBstar_enol_ccL_2pentet_b3lypD3bj_ccpVDZ_pcmH2O_opt_220230814184228//Frg5/
 Creating input file /data/scratch/C_FePBstar_enol_ccL_2pentet_b3lypD3bj_ccpVDZ_pcmH2O_opt_220230814184228/Frg1.input
 using default PutDataFrgm: nothing
 calling putenv with: QCSCRATCH=/data/scratch/C_FePBstar_enol_ccL_2pentet_b3lypD3bj_ccpVDZ_pcmH2O_opt_220230814184228/ 
 Spawning Job For Fragment 0
 Done Job For Fragment 0
 calling putenv with: QCSCRATCH=/data/scratch 
 calling putenv with: QCTHREADS=20 
 Creating input file /data/scratch/C_FePBstar_enol_ccL_2pentet_b3lypD3bj_ccpVDZ_pcmH2O_opt_220230814184228/Frg2.input
 using default PutDataFrgm: nothing
 calling putenv with: QCSCRATCH=/data/scratch/C_FePBstar_enol_ccL_2pentet_b3lypD3bj_ccpVDZ_pcmH2O_opt_220230814184228/ 
 Spawning Job For Fragment 1
 Done Job For Fragment 1
 calling putenv with: QCSCRATCH=/data/scratch 
 calling putenv with: QCTHREADS=20 
 Creating input file /data/scratch/C_FePBstar_enol_ccL_2pentet_b3lypD3bj_ccpVDZ_pcmH2O_opt_220230814184228/Frg3.input
 using default PutDataFrgm: nothing
 calling putenv with: QCSCRATCH=/data/scratch/C_FePBstar_enol_ccL_2pentet_b3lypD3bj_ccpVDZ_pcmH2O_opt_220230814184228/ 
 Spawning Job For Fragment 2
 Done Job For Fragment 2
 calling putenv with: QCSCRATCH=/data/scratch 
 calling putenv with: QCTHREADS=20 
 Creating input file /data/scratch/C_FePBstar_enol_ccL_2pentet_b3lypD3bj_ccpVDZ_pcmH2O_opt_220230814184228/Frg4.input
 using default PutDataFrgm: nothing
 calling putenv with: QCSCRATCH=/data/scratch/C_FePBstar_enol_ccL_2pentet_b3lypD3bj_ccpVDZ_pcmH2O_opt_220230814184228/ 
 Spawning Job For Fragment 3
 Done Job For Fragment 3
 calling putenv with: QCSCRATCH=/data/scratch 
 calling putenv with: QCTHREADS=20 
 Creating input file /data/scratch/C_FePBstar_enol_ccL_2pentet_b3lypD3bj_ccpVDZ_pcmH2O_opt_220230814184228/Frg5.input
 using default PutDataFrgm: nothing
 calling putenv with: QCSCRATCH=/data/scratch/C_FePBstar_enol_ccL_2pentet_b3lypD3bj_ccpVDZ_pcmH2O_opt_220230814184228/ 
 Spawning Job For Fragment 4
 Done Job For Fragment 4
 calling putenv with: QCSCRATCH=/data/scratch 
 calling putenv with: QCTHREADS=20 
 Time for running child jobs:  CPU 0.02 s  wall 58.36 s
 ============= Method Specific SAD Guess Constructed =============
 Guess from on-the-fly superposition of atomic densities
 Warning: Energy on first SCF cycle will be non-variational

 -----------------------------------------------------------------------
  General SCF calculation program by
  Eric Jon Sundstrom, Paul Horn, Yuezhi Mao, Dmitri Zuev, Alec White,
  David Stuck, Shaama M.S., Shane Yost, Joonho Lee, David Small,
  Daniel Levine, Susi Lehtola, Hugh Burton, Evgeny Epifanovsky,
  Bang C. Huynh
 -----------------------------------------------------------------------
 Exchange:     0.2000 Hartree-Fock + 0.0800 Slater + 0.7200 B88
 Correlation:  0.1900 VWN1RPA + 0.8100 LYP
 Using SG-1 standard quadrature grid
 Dispersion:   Grimme D3
 using 20 threads for integral computing
 -------------------------------------------------------
 OpenMP Integral computing Module                
 Release: version 1.0, May 2013, Q-Chem Inc. Pittsburgh 
 -------------------------------------------------------
 C-PCM solvent model [f = (eps-1)/eps], solve by matrix inversion
 A unrestricted SCF calculation will be
 performed using DIIS
 SCF converges when DIIS error is below 1.0e-08
 ---------------------------------------
  Cycle       Energy         DIIS error
 ---------------------------------------
    1   -3572.8067059924      1.45e-02  
    2   -3552.3371637590      1.71e-03  
    3   -3546.9503472500      4.79e-03  
    4   -3548.5554781207      3.60e-03  
    5   -3553.4503036890      5.80e-04  
    6   -3553.5262619622      4.15e-04  
    7   -3553.5919263352      1.37e-04  
    8   -3553.5965941372      7.55e-05  
    9   -3553.5984112497      4.01e-05  
   10   -3553.5988510230      2.06e-05  
   11   -3553.5990143536      5.99e-06  
   12   -3553.5990256657      2.74e-06  
   13   -3553.5990282885      1.29e-06  
   14   -3553.5990290168      7.02e-07  
   15   -3553.5990292105      4.36e-07  
   16   -3553.5990292744      2.17e-07  
   17   -3553.5990292931      7.23e-08  
   18   -3553.5990292984      3.83e-08  
   19   -3553.5990292995      2.23e-08  
   20   -3553.5990293000      1.02e-08  
   21   -3553.5990293001      5.42e-09  Convergence criterion met
 ---------------------------------------
 SCF time:   CPU 39097.21s  wall 2737.00s 
<S^2> =          8.758485369

************** Final PCM Free Energy Summary **************
 G_electrostatic  =      -0.28675751 hartree =    -179.94305285 kcal/mol
 G_cavitation     =       0.00000000 hartree =       0.00000000 kcal/mol
 G_dispersion     =       0.00000000 hartree =       0.00000000 kcal/mol
 G_repulsion      =       0.00000000 hartree =       0.00000000 kcal/mol
 --------------------------------------------------
 Non-electrostatic Free Energy =       0.00000000 hartree =       0.00000000 kcal/mol
 Total                         =      -0.28675751 hartree =    -179.94305285 kcal/mol
 --------------------------------------------------
 SCF Energy (H0 + V/2)                       =   -3553.59902930 
 Solute Internal Energy (H0)                 =   -3553.31227179 
 Total Free Energy (H0 + V/2 + non-elec)     =   -3553.59902930 hartree
                                             = -2229917.04702220 kcal/mol
***********************************************************

 SCF   energy in the final basis set =    -3553.5990293001
 Total energy in the final basis set =    -3553.5990293001
 
 --------------------------------------------------------------
 
                    Orbital Energies (a.u.)
 --------------------------------------------------------------
 
 Alpha MOs
 -- Occupied --
******** -30.1214 -25.9754 -25.9728 -25.9714 -19.1116 -19.1063 -19.0984
-19.0980 -19.0968 -19.0947 -19.0945 -19.0933 -19.0915 -14.3417 -14.3411
-14.3387 -14.3330 -14.3031 -14.2956 -10.2778 -10.2767 -10.2754 -10.2728
-10.2454 -10.2148 -10.2139 -10.2107 -10.2103 -10.2095 -10.2087 -10.2070
-10.2053 -10.1966 -10.1952 -10.1949 -10.1942 -10.1827 -10.1766 -10.1754
-10.1748 -10.1727 -10.1719 -10.1718 -10.1704 -10.1699 -10.1696 -10.1680
-10.1671 -10.1647 -10.1631 -10.1631 -10.1500  -3.6034  -2.3811  -2.3769
 -2.3728  -1.0281  -1.0207  -1.0204  -1.0175  -1.0012  -0.9963  -0.9934
 -0.9582  -0.9576  -0.9117  -0.9114  -0.9102  -0.9081  -0.8916  -0.8875
 -0.8222  -0.8197  -0.7850  -0.7815  -0.7669  -0.7589  -0.7534  -0.7297
 -0.7234  -0.7193  -0.7068  -0.7011  -0.6984  -0.6882  -0.6671  -0.6585
 -0.6322  -0.6220  -0.6022  -0.5987  -0.5893  -0.5861  -0.5843  -0.5751
 -0.5731  -0.5705  -0.5660  -0.5592  -0.5549  -0.5520  -0.5397  -0.5112
 -0.5072  -0.4957  -0.4871  -0.4854  -0.4785  -0.4743  -0.4724  -0.4715
 -0.4686  -0.4667  -0.4637  -0.4618  -0.4583  -0.4561  -0.4517  -0.4477
 -0.4432  -0.4425  -0.4400  -0.4355  -0.4321  -0.4286  -0.4259  -0.4207
 -0.4171  -0.4140  -0.4134  -0.4105  -0.4096  -0.4062  -0.4047  -0.4013
 -0.3984  -0.3975  -0.3953  -0.3936  -0.3903  -0.3896  -0.3861  -0.3836
 -0.3807  -0.3773  -0.3752  -0.3720  -0.3701  -0.3669  -0.3655  -0.3632
 -0.3601  -0.3582  -0.3547  -0.3519  -0.3464  -0.3455  -0.3423  -0.3379
 -0.3361  -0.3345  -0.3332  -0.3299  -0.3262  -0.3247  -0.3206  -0.3185
 -0.3150  -0.3136  -0.3117  -0.3102  -0.2966  -0.2939  -0.2829  -0.2659
 -0.2627  -0.2551  -0.2521  -0.2497  -0.2471  -0.2468  -0.2437  -0.2426
 -0.2408  -0.2232  -0.2192  -0.2157  -0.2133  -0.2119  -0.2100  -0.1970
 -0.1687  -0.1676
 -- Virtual --
 -0.0155  -0.0128  -0.0039   0.0217   0.0254   0.0309   0.0428   0.0555
  0.0590   0.0654   0.0702   0.0752   0.0771   0.0800   0.0815   0.0835
  0.0880   0.0888   0.0916   0.0921   0.1005   0.1008   0.1043   0.1079
  0.1110   0.1115   0.1174   0.1220   0.1237   0.1277   0.1301   0.1305
  0.1322   0.1392   0.1411   0.1449   0.1490   0.1542   0.1563   0.1582
  0.1597   0.1616   0.1622   0.1664   0.1682   0.1690   0.1737   0.1763
  0.1803   0.1806   0.1868   0.1880   0.1916   0.1942   0.1984   0.1998
  0.2015   0.2039   0.2104   0.2158   0.2183   0.2240   0.2260   0.2270
  0.2319   0.2337   0.2355   0.2399   0.2437   0.2494   0.2523   0.2557
  0.2591   0.2630   0.2642   0.2732   0.2744   0.2754   0.2779   0.2793
  0.2843   0.2888   0.2906   0.2918   0.2992   0.3025   0.3072   0.3123
  0.3172   0.3213   0.3273   0.3314   0.3349   0.3415   0.3487   0.3630
  0.3636   0.3700   0.3742   0.3790   0.3867   0.3962   0.4007   0.4073
  0.4103   0.4127   0.4162   0.4196   0.4256   0.4261   0.4282   0.4311
  0.4365   0.4394   0.4422   0.4436   0.4468   0.4514   0.4567   0.4648
  0.4655   0.4692   0.4705   0.4736   0.4745   0.4778   0.4800   0.4849
  0.4865   0.4913   0.4933   0.4995   0.5017   0.5052   0.5073   0.5114
  0.5144   0.5173   0.5260   0.5273   0.5299   0.5315   0.5389   0.5395
  0.5404   0.5452   0.5466   0.5480   0.5513   0.5588   0.5624   0.5642
  0.5684   0.5696   0.5720   0.5766   0.5814   0.5841   0.5846   0.5876
  0.5899   0.5936   0.5963   0.5979   0.6010   0.6042   0.6048   0.6084
  0.6132   0.6142   0.6166   0.6207   0.6222   0.6249   0.6287   0.6296
  0.6306   0.6324   0.6390   0.6415   0.6447   0.6461   0.6496   0.6505
  0.6529   0.6538   0.6556   0.6584   0.6590   0.6602   0.6651   0.6683
  0.6694   0.6719   0.6728   0.6748   0.6784   0.6799   0.6833   0.6855
  0.6873   0.6909   0.6924   0.6949   0.6953   0.7007   0.7042   0.7043
  0.7069   0.7101   0.7113   0.7153   0.7176   0.7194   0.7233   0.7257
  0.7273   0.7289   0.7368   0.7387   0.7405   0.7470   0.7483   0.7499
  0.7521   0.7548   0.7601   0.7625   0.7686   0.7746   0.7802   0.7829
  0.7842   0.7857   0.7920   0.7974   0.8036   0.8083   0.8135   0.8242
  0.8278   0.8322   0.8355   0.8399   0.8474   0.8508   0.8534   0.8599
  0.8659   0.8722   0.8756   0.8769   0.8823   0.8894   0.8935   0.8945
  0.8992   0.9014   0.9043   0.9062   0.9146   0.9167   0.9251   0.9274
  0.9326   0.9344   0.9390   0.9451   0.9540   0.9580   0.9636   0.9650
  0.9700   0.9719   0.9805   0.9814   0.9920   0.9954   1.0026   1.0035
  1.0078   1.0142   1.0157   1.0239   1.0290   1.0342   1.0414   1.0453
  1.0473   1.0503   1.0537   1.0584   1.0613   1.0664   1.0679   1.0736
  1.0772   1.0816   1.0862   1.0904   1.0937   1.0955   1.1007   1.1035
  1.1077   1.1163   1.1169   1.1229   1.1242   1.1282   1.1291   1.1328
  1.1373   1.1462   1.1515   1.1560   1.1623   1.1683   1.1738   1.1766
  1.1793   1.1853   1.1892   1.1946   1.1990   1.2024   1.2047   1.2077
  1.2130   1.2187   1.2265   1.2274   1.2303   1.2349   1.2373   1.2436
  1.2488   1.2493   1.2501   1.2559   1.2598   1.2639   1.2727   1.2826
  1.2845   1.2953   1.3024   1.3064   1.3089   1.3147   1.3165   1.3205
  1.3260   1.3338   1.3351   1.3426   1.3488   1.3517   1.3652   1.3706
  1.3736   1.3785   1.3837   1.3871   1.3932   1.3976   1.4027   1.4149
  1.4162   1.4197   1.4232   1.4265   1.4284   1.4322   1.4400   1.4442
  1.4505   1.4529   1.4544   1.4655   1.4678   1.4746   1.4802   1.4879
  1.4898   1.4965   1.4986   1.5018   1.5107   1.5160   1.5200   1.5214
  1.5259   1.5340   1.5358   1.5397   1.5441   1.5485   1.5494   1.5557
  1.5574   1.5603   1.5677   1.5692   1.5800   1.5807   1.5833   1.5885
  1.5914   1.5932   1.5994   1.6013   1.6041   1.6064   1.6106   1.6120
  1.6147   1.6215   1.6246   1.6284   1.6301   1.6321   1.6371   1.6391
  1.6413   1.6423   1.6439   1.6479   1.6489   1.6531   1.6572   1.6615
  1.6640   1.6675   1.6688   1.6716   1.6722   1.6748   1.6780   1.6806
  1.6851   1.6868   1.6897   1.6904   1.6953   1.6973   1.7001   1.7044
  1.7060   1.7091   1.7119   1.7138   1.7166   1.7180   1.7200   1.7232
  1.7242   1.7271   1.7305   1.7316   1.7355   1.7370   1.7381   1.7418
  1.7453   1.7495   1.7501   1.7533   1.7566   1.7610   1.7648   1.7659
  1.7715   1.7733   1.7769   1.7796   1.7843   1.7862   1.7868   1.7914
  1.7948   1.7970   1.7981   1.8032   1.8071   1.8106   1.8111   1.8130
  1.8178   1.8213   1.8275   1.8321   1.8345   1.8359   1.8402   1.8437
  1.8486   1.8512   1.8536   1.8541   1.8590   1.8620   1.8726   1.8747
  1.8820   1.8842   1.8883   1.8930   1.8958   1.9016   1.9092   1.9123
  1.9171   1.9184   1.9227   1.9301   1.9329   1.9353   1.9393   1.9444
  1.9462   1.9486   1.9516   1.9528   1.9550   1.9581   1.9676   1.9716
  1.9732   1.9866   1.9926   1.9948   2.0010   2.0054   2.0097   2.0127
  2.0142   2.0238   2.0246   2.0328   2.0342   2.0393   2.0423   2.0467
  2.0562   2.0596   2.0664   2.0721   2.0843   2.0885   2.0983   2.0997
  2.1028   2.1048   2.1093   2.1139   2.1199   2.1255   2.1266   2.1342
  2.1398   2.1403   2.1442   2.1456   2.1481   2.1543   2.1632   2.1656
  2.1763   2.1776   2.1812   2.1903   2.2024   2.2053   2.2124   2.2135
  2.2182   2.2234   2.2289   2.2315   2.2350   2.2398   2.2450   2.2518
  2.2613   2.2630   2.2656   2.2728   2.2767   2.2789   2.2839   2.2897
  2.2937   2.3010   2.3034   2.3089   2.3112   2.3131   2.3236   2.3264
  2.3335   2.3396   2.3463   2.3531   2.3616   2.3661   2.3696   2.3772
  2.3817   2.3843   2.3985   2.4010   2.4129   2.4181   2.4252   2.4285
  2.4348   2.4400   2.4426   2.4527   2.4585   2.4643   2.4692   2.4742
  2.4844   2.4876   2.4905   2.4916   2.5071   2.5127   2.5161   2.5182
  2.5227   2.5264   2.5381   2.5423   2.5461   2.5534   2.5608   2.5657
  2.5809   2.5823   2.5884   2.6024   2.6117   2.6173   2.6189   2.6256
  2.6336   2.6379   2.6413   2.6439   2.6511   2.6624   2.6714   2.6826
  2.6913   2.6922   2.6983   2.7020   2.7106   2.7113   2.7144   2.7153
  2.7233   2.7323   2.7346   2.7433   2.7444   2.7565   2.7695   2.7709
  2.7759   2.7870   2.7918   2.7930   2.7957   2.8046   2.8047   2.8112
  2.8147   2.8204   2.8364   2.8466   2.8626   2.8654   2.8692   2.9197
  2.9258   2.9309   2.9429   2.9437   2.9462   2.9497   2.9612   3.0004
  3.0070   3.0179   3.0591   3.0651   3.0694   3.0764   3.0887   3.0968
  3.1029   3.1103   3.1294   3.1352   3.1362   3.1466   3.1586   3.1682
  3.1948   3.1963   3.2052   3.2750   3.2844   3.3367   3.3836   3.4180
  3.4410   3.4442   3.4519   3.4714   3.4734   3.4786   3.4873   3.4901
  3.5032   3.5164   3.5236   3.5314   3.5487   3.6181   3.7041   3.7156
 
 Beta MOs
 -- Occupied --
******** -30.0285 -25.8971 -25.8956 -25.8950 -19.1092 -19.1038 -19.0968
-19.0947 -19.0945 -19.0941 -19.0937 -19.0882 -19.0871 -14.3415 -14.3411
-14.3387 -14.3330 -14.3031 -14.2956 -10.2778 -10.2767 -10.2754 -10.2728
-10.2455 -10.2149 -10.2138 -10.2107 -10.2103 -10.2095 -10.2087 -10.2070
-10.2053 -10.1966 -10.1952 -10.1949 -10.1942 -10.1826 -10.1766 -10.1753
-10.1748 -10.1727 -10.1719 -10.1717 -10.1704 -10.1699 -10.1695 -10.1678
-10.1671 -10.1644 -10.1629 -10.1629 -10.1497  -3.3870  -2.1503  -2.1484
 -2.1482  -1.0246  -1.0205  -1.0203  -1.0174  -0.9954  -0.9891  -0.9863
 -0.9490  -0.9479  -0.9114  -0.9104  -0.9101  -0.9080  -0.8916  -0.8875
 -0.8212  -0.8186  -0.7848  -0.7814  -0.7664  -0.7587  -0.7531  -0.7292
 -0.7225  -0.7184  -0.7059  -0.6997  -0.6970  -0.6878  -0.6667  -0.6582
 -0.6320  -0.6218  -0.6014  -0.5979  -0.5883  -0.5855  -0.5834  -0.5745
 -0.5720  -0.5699  -0.5654  -0.5584  -0.5539  -0.5504  -0.5378  -0.5088
 -0.5038  -0.4922  -0.4849  -0.4816  -0.4778  -0.4715  -0.4712  -0.4689
 -0.4671  -0.4636  -0.4584  -0.4577  -0.4540  -0.4480  -0.4471  -0.4449
 -0.4425  -0.4403  -0.4351  -0.4311  -0.4260  -0.4222  -0.4214  -0.4175
 -0.4105  -0.4092  -0.4086  -0.4051  -0.4022  -0.3988  -0.3986  -0.3965
 -0.3954  -0.3931  -0.3905  -0.3869  -0.3836  -0.3814  -0.3783  -0.3760
 -0.3739  -0.3685  -0.3662  -0.3633  -0.3600  -0.3577  -0.3566  -0.3482
 -0.3460  -0.3445  -0.3426  -0.3364  -0.3358  -0.3344  -0.3332  -0.3268
 -0.3261  -0.3205  -0.3191  -0.3163  -0.3143  -0.3118  -0.3094  -0.2962
 -0.2934  -0.2862  -0.2752  -0.2677  -0.2594  -0.2556  -0.2530  -0.2492
 -0.2483  -0.2452  -0.2441  -0.2428  -0.2416  -0.2385  -0.2153  -0.2130
 -0.2117  -0.2100  -0.1995  -0.1717  -0.1674
 -- Virtual --
 -0.0660  -0.0654  -0.0622  -0.0234  -0.0162  -0.0121  -0.0062   0.0081
  0.0240   0.0284   0.0315   0.0439   0.0559   0.0595   0.0660   0.0706
  0.0757   0.0774   0.0802   0.0822   0.0839   0.0888   0.0895   0.0921
  0.0930   0.1007   0.1018   0.1048   0.1081   0.1112   0.1118   0.1179
  0.1225   0.1240   0.1278   0.1304   0.1306   0.1323   0.1393   0.1414
  0.1450   0.1491   0.1544   0.1566   0.1583   0.1599   0.1618   0.1624
  0.1668   0.1684   0.1693   0.1741   0.1766   0.1807   0.1811   0.1878
  0.1892   0.1927   0.1955   0.1988   0.2009   0.2030   0.2044   0.2132
  0.2165   0.2222   0.2247   0.2272   0.2274   0.2331   0.2343   0.2361
  0.2403   0.2456   0.2503   0.2527   0.2580   0.2598   0.2633   0.2650
  0.2753   0.2758   0.2779   0.2805   0.2817   0.2856   0.2894   0.2914
  0.2950   0.2994   0.3062   0.3095   0.3168   0.3184   0.3258   0.3302
  0.3363   0.3393   0.3458   0.3553   0.3651   0.3673   0.3724   0.3775
  0.3831   0.3920   0.3978   0.4025   0.4087   0.4144   0.4171   0.4185
  0.4203   0.4267   0.4280   0.4292   0.4320   0.4373   0.4402   0.4430
  0.4447   0.4480   0.4523   0.4571   0.4657   0.4660   0.4697   0.4719
  0.4747   0.4752   0.4781   0.4806   0.4856   0.4874   0.4923   0.4941
  0.5000   0.5023   0.5055   0.5080   0.5125   0.5149   0.5180   0.5264
  0.5278   0.5307   0.5321   0.5396   0.5404   0.5413   0.5455   0.5478
  0.5491   0.5518   0.5596   0.5634   0.5651   0.5687   0.5709   0.5733
  0.5777   0.5824   0.5845   0.5852   0.5881   0.5905   0.5942   0.5969
  0.5984   0.6013   0.6048   0.6057   0.6089   0.6137   0.6149   0.6175
  0.6219   0.6227   0.6254   0.6293   0.6309   0.6314   0.6330   0.6399
  0.6421   0.6450   0.6466   0.6499   0.6510   0.6534   0.6544   0.6559
  0.6587   0.6595   0.6605   0.6657   0.6686   0.6699   0.6723   0.6735
  0.6751   0.6790   0.6809   0.6844   0.6859   0.6884   0.6915   0.6930
  0.6954   0.6965   0.7021   0.7048   0.7056   0.7076   0.7117   0.7128
  0.7159   0.7181   0.7199   0.7240   0.7270   0.7287   0.7299   0.7377
  0.7402   0.7422   0.7487   0.7498   0.7506   0.7529   0.7556   0.7610
  0.7652   0.7720   0.7802   0.7812   0.7840   0.7855   0.7924   0.7948
  0.8007   0.8048   0.8125   0.8171   0.8252   0.8300   0.8346   0.8366
  0.8409   0.8502   0.8536   0.8587   0.8627   0.8699   0.8752   0.8774
  0.8809   0.8844   0.8899   0.8950   0.8958   0.9010   0.9027   0.9057
  0.9086   0.9158   0.9201   0.9269   0.9282   0.9340   0.9353   0.9401
  0.9458   0.9555   0.9606   0.9647   0.9683   0.9721   0.9734   0.9814
  0.9840   0.9941   0.9974   1.0034   1.0051   1.0091   1.0155   1.0174
  1.0260   1.0302   1.0357   1.0430   1.0463   1.0488   1.0520   1.0547
  1.0605   1.0623   1.0675   1.0698   1.0755   1.0785   1.0829   1.0877
  1.0912   1.0945   1.0980   1.1021   1.1054   1.1094   1.1180   1.1184
  1.1251   1.1254   1.1300   1.1306   1.1339   1.1392   1.1481   1.1538
  1.1575   1.1638   1.1692   1.1752   1.1784   1.1804   1.1861   1.1903
  1.1957   1.2008   1.2035   1.2064   1.2094   1.2149   1.2193   1.2280
  1.2302   1.2330   1.2358   1.2388   1.2450   1.2505   1.2509   1.2552
  1.2594   1.2659   1.2735   1.2786   1.2857   1.2958   1.2965   1.3069
  1.3094   1.3109   1.3191   1.3209   1.3261   1.3306   1.3362   1.3415
  1.3499   1.3547   1.3592   1.3691   1.3741   1.3757   1.3798   1.3870
  1.3895   1.3947   1.4003   1.4112   1.4162   1.4210   1.4241   1.4271
  1.4292   1.4311   1.4356   1.4430   1.4459   1.4523   1.4547   1.4649
  1.4692   1.4724   1.4789   1.4826   1.4898   1.4935   1.5019   1.5069
  1.5134   1.5151   1.5210   1.5229   1.5244   1.5288   1.5368   1.5415
  1.5436   1.5495   1.5497   1.5561   1.5590   1.5595   1.5633   1.5697
  1.5748   1.5805   1.5814   1.5843   1.5930   1.5937   1.5945   1.6031
  1.6045   1.6054   1.6089   1.6119   1.6159   1.6175   1.6228   1.6273
  1.6300   1.6339   1.6360   1.6394   1.6412   1.6429   1.6443   1.6474
  1.6494   1.6516   1.6551   1.6610   1.6647   1.6672   1.6694   1.6699
  1.6727   1.6757   1.6788   1.6814   1.6835   1.6874   1.6886   1.6933
  1.6936   1.6960   1.6984   1.7017   1.7052   1.7090   1.7103   1.7126
  1.7149   1.7188   1.7197   1.7233   1.7243   1.7256   1.7283   1.7313
  1.7334   1.7365   1.7382   1.7395   1.7431   1.7466   1.7517   1.7545
  1.7573   1.7576   1.7626   1.7668   1.7682   1.7727   1.7750   1.7793
  1.7818   1.7865   1.7871   1.7876   1.7949   1.7969   1.7976   1.8022
  1.8060   1.8085   1.8129   1.8136   1.8148   1.8195   1.8226   1.8297
  1.8329   1.8362   1.8404   1.8412   1.8449   1.8499   1.8519   1.8549
  1.8556   1.8599   1.8639   1.8735   1.8775   1.8849   1.8879   1.8890
  1.8943   1.8972   1.9028   1.9112   1.9144   1.9197   1.9212   1.9240
  1.9312   1.9335   1.9367   1.9398   1.9454   1.9493   1.9505   1.9538
  1.9549   1.9583   1.9599   1.9720   1.9737   1.9756   1.9883   1.9944
  1.9954   2.0021   2.0068   2.0105   2.0142   2.0168   2.0255   2.0256
  2.0335   2.0353   2.0405   2.0431   2.0513   2.0579   2.0615   2.0675
  2.0733   2.0859   2.0917   2.0992   2.1009   2.1031   2.1056   2.1117
  2.1146   2.1205   2.1270   2.1283   2.1366   2.1405   2.1415   2.1455
  2.1464   2.1491   2.1557   2.1655   2.1678   2.1780   2.1827   2.1843
  2.1913   2.2045   2.2066   2.2133   2.2148   2.2221   2.2259   2.2302
  2.2352   2.2383   2.2403   2.2461   2.2522   2.2630   2.2660   2.2668
  2.2757   2.2771   2.2793   2.2844   2.2914   2.2954   2.3028   2.3053
  2.3094   2.3123   2.3136   2.3252   2.3291   2.3347   2.3411   2.3486
  2.3546   2.3620   2.3668   2.3744   2.3801   2.3842   2.3870   2.3998
  2.4034   2.4211   2.4270   2.4286   2.4316   2.4357   2.4428   2.4445
  2.4533   2.4633   2.4660   2.4715   2.4769   2.4853   2.4879   2.4914
  2.4924   2.5078   2.5131   2.5168   2.5186   2.5235   2.5266   2.5389
  2.5425   2.5478   2.5544   2.5616   2.5660   2.5812   2.5827   2.5887
  2.6027   2.6138   2.6183   2.6218   2.6294   2.6351   2.6387   2.6431
  2.6445   2.6513   2.6638   2.6721   2.6842   2.6915   2.6985   2.7017
  2.7085   2.7134   2.7164   2.7225   2.7265   2.7311   2.7352   2.7384
  2.7443   2.7579   2.7626   2.7715   2.7771   2.7801   2.7879   2.7928
  2.7971   2.8052   2.8069   2.8100   2.8137   2.8228   2.8253   2.8408
  2.8490   2.8674   2.8695   2.8714   2.9272   2.9325   2.9376   2.9435
  2.9467   2.9528   2.9596   2.9949   3.0304   3.0593   3.0672   3.0781
  3.0898   3.0917   3.1051   3.1074   3.1168   3.1311   3.1316   3.1396
  3.1434   3.1573   3.1676   3.1816   3.1957   3.2046   3.2456   3.2656
  3.2809   3.2893   3.3472   3.4302   3.4421   3.4463   3.4518   3.4620
  3.4729   3.4800   3.4877   3.4910   3.5065   3.5181   3.5315   3.5570
  3.5900   3.6214   3.6454   3.7130   3.7223
 --------------------------------------------------------------
 
          Ground-State Mulliken Net Atomic Charges

     Atom                 Charge (a.u.)    Spin (a.u.)
  --------------------------------------------------------
      1 C                     0.125610       0.001400
      2 C                    -0.066389       0.021795
      3 C                    -0.024373       0.006458
      4 C                     0.013327       0.005865
      5 C                    -0.036575       0.011242
      6 C                     0.136108       0.006139
      7 H                    -0.055619      -0.000475
      8 O                    -0.453544       0.128043
      9 C                     0.116705       0.000183
     10 O                    -0.353864       0.002286
     11 N                    -0.141801       0.000226
     12 H                     0.102130       0.000004
     13 C                     0.089792      -0.000009
     14 H                     0.013227       0.000003
     15 H                     0.017338      -0.000007
     16 C                    -0.025210       0.000030
     17 H                     0.008612       0.000013
     18 H                     0.013956      -0.000002
     19 C                     0.068542      -0.000007
     20 H                     0.023291      -0.000050
     21 H                     0.000600       0.000000
     22 N                    -0.229378       0.000008
     23 H                     0.086249      -0.000002
     24 C                    -0.009562       0.000049
     25 H                     0.012339       0.000126
     26 H                     0.000557       0.000012
     27 C                     0.044657       0.000037
     28 H                     0.004079       0.000010
     29 H                     0.043067      -0.000150
     30 C                     0.009850       0.000214
     31 H                    -0.003391       0.000007
     32 H                    -0.012671       0.000064
     33 C                     0.092024      -0.000232
     34 H                     0.033460       0.000199
     35 H                     0.020433       0.000351
     36 N                    -0.135360       0.007787
     37 H                     0.111063       0.000849
     38 C                     0.236593       0.003897
     39 O                    -0.370021       0.060191
     40 C                    -0.109839       0.020866
     41 H                    -0.032388      -0.000752
     42 C                     0.052521       0.006324
     43 H                     0.054566       0.000207
     44 H                     0.028438      -0.000215
     45 C                     0.093695       0.000082
     46 O                    -0.362702       0.000035
     47 N                    -0.129644       0.000023
     48 C                     0.110887      -0.000001
     49 H                     0.138202      -0.000098
     50 C                    -0.038417       0.000027
     51 H                     0.017749      -0.000051
     52 H                     0.009776      -0.000005
     53 C                    -0.020684       0.000012
     54 H                     0.001832       0.000004
     55 H                     0.013029       0.000018
     56 C                     0.082702      -0.000005
     57 H                    -0.004946       0.000000
     58 H                     0.009288       0.000009
     59 H                     0.002141       0.000004
     60 H                    -0.003380       0.000000
     61 C                     0.180467      -0.000091
     62 C                     0.021066       0.000646
     63 O                    -0.367822       0.002291
     64 C                    -0.055466       0.009331
     65 C                    -0.024776       0.014891
     66 C                    -0.088559       0.015742
     67 C                     0.140274       0.000712
     68 C                     0.128602       0.005163
     69 H                    -0.053585      -0.000040
     70 O                    -0.443507       0.129506
     71 C                     0.123352      -0.001642
     72 O                    -0.397250       0.067109
     73 H                    -0.048291      -0.000038
     74 O                    -0.453224       0.155567
     75 H                    -0.046029      -0.000202
     76 O                    -0.456492       0.133970
     77 Fe                    0.523772       4.182940
     78 N                    -0.256223       0.000036
     79 H                     0.084698       0.000043
     80 N                    -0.136379       0.000623
     81 H                     0.112789      -0.000027
     82 C                     0.091650      -0.000041
     83 H                     0.020914      -0.000007
     84 H                     0.018927       0.000022
     85 C                     0.003175       0.000061
     86 H                     0.002861       0.000023
     87 H                     0.007500      -0.000002
     88 C                     0.046407       0.000016
     89 H                     0.010962       0.000006
     90 H                     0.014444      -0.000022
     91 H                    -0.058905       0.000307
     92 H                    -0.064031       0.000065
  --------------------------------------------------------
  Sum of atomic charges =    -2.000000
  Sum of spin   charges =     5.000000

 -----------------------------------------------------------------
                    Cartesian Multipole Moments
 -----------------------------------------------------------------
    Charge (ESU x 10^10)
                -9.6064
    Dipole Moment (Debye)
         X      -4.2912      Y       8.1662      Z      25.5086
       Tot      27.1254
    Quadrupole Moments (Debye-Ang)
        XX    -477.8732     XY      -1.8726     YY    -325.6165
        XZ      47.0441     YZ       5.6836     ZZ    -355.5438
    Octopole Moments (Debye-Ang^2)
       XXX    -235.9397    XXY     127.3600    XYY     105.8000
       YYY      91.3514    XXZ     635.3684    XYZ    -124.2145
       YYZ     276.4979    XZZ    -112.8279    YZZ     -18.9443
       ZZZ     770.5908
    Hexadecapole Moments (Debye-Ang^3)
      XXXX  -53792.1187   XXXY     452.7534   XXYY   -8663.4129
      XYYY     882.1209   YYYY   -5333.6112   XXXZ    3852.3876
      XXYZ    -390.0659   XYYZ     107.3231   YYYZ    -182.3346
      XXZZ   -8955.0377   XYZZ     641.0393   YYZZ   -2257.0693
      XZZZ     553.1443   YZZZ    -271.9704   ZZZZ   -7087.8798
 -----------------------------------------------------------------
 Calculating analytic gradient of the SCF energy
 Gradient of SCF Energy
            1           2           3           4           5           6
    1   0.0353893  -0.0256508  -0.0623809   0.0114433  -0.0133595   0.0198566
    2  -0.0159109   0.0141863   0.0095398   0.0031272  -0.0010890   0.0005997
    3   0.0147214   0.0038544  -0.0345818   0.0057539   0.0164924  -0.0266865
            7           8           9          10          11          12
    1  -0.0066388   0.0507450   0.0875875  -0.0924749  -0.0391602   0.0430226
    2   0.0214983  -0.0200948   0.0374407  -0.0503269   0.0102012   0.0155311
    3  -0.0469459   0.0409771  -0.0254710   0.0478437   0.0048218  -0.0185886
           13          14          15          16          17          18
    1   0.0159214  -0.0098219  -0.0268539  -0.0027270  -0.0152070   0.0228751
    2  -0.0060737   0.0236194  -0.0153915  -0.0065077  -0.0009195   0.0125897
    3  -0.0026146  -0.0105872   0.0112860   0.0051097  -0.0177723  -0.0084073
           19          20          21          22          23          24
    1   0.0023916   0.0158554  -0.0262945   0.0060915  -0.0071939  -0.0128282
    2   0.0155951   0.0033093  -0.0165270  -0.0212343   0.0033026  -0.0118417
    3  -0.0194841   0.0373687   0.0011819   0.0139106  -0.0311432   0.0020591
           25          26          27          28          29          30
    1   0.0370422  -0.0039220  -0.0217622   0.0066485   0.0086709   0.0044774
    2   0.0143397   0.0005454  -0.0129861   0.0306048   0.0000884   0.0115437
    3   0.0067487  -0.0287557  -0.0147566  -0.0110242   0.0429088   0.0026333
           31          32          33          34          35          36
    1   0.0114882  -0.0273790   0.0146101  -0.0146914  -0.0129495  -0.0306057
    2  -0.0171793  -0.0103504  -0.0069341   0.0341558  -0.0283006   0.0026261
    3  -0.0184086   0.0005787  -0.0172997   0.0278366   0.0118464  -0.0103560
           37          38          39          40          41          42
    1   0.0180892   0.0316022  -0.0456506  -0.0224296   0.0151491  -0.0031400
    2  -0.0359708  -0.0210596   0.0578974  -0.0002742  -0.0335028  -0.0003964
    3  -0.0152145  -0.0111167   0.0314471  -0.0014703  -0.0260877   0.0223198
           43          44          45          46          47          48
    1   0.0100356   0.0046356  -0.0253565   0.0157351   0.0198164   0.0017240
    2   0.0219747  -0.0401166   0.0534476  -0.0867746  -0.0025784  -0.0067643
    3  -0.0335082  -0.0104282  -0.0751681   0.0946931   0.0323216  -0.0178293
           49          50          51          52          53          54
    1  -0.0127726   0.0068068  -0.0135357   0.0064658   0.0025981   0.0200340
    2   0.0396569  -0.0151412   0.0368833  -0.0258574   0.0142775   0.0133551
    3  -0.0458528  -0.0049304   0.0179553   0.0323670  -0.0040899   0.0219617
           55          56          57          58          59          60
    1  -0.0063063  -0.0161783   0.0112000  -0.0239619   0.0115246   0.0211619
    2   0.0208180   0.0036057  -0.0157263  -0.0178183  -0.0244613   0.0164115
    3  -0.0241556   0.0012804   0.0231003  -0.0139223  -0.0057547   0.0126384
           61          62          63          64          65          66
    1  -0.0668383  -0.0101990   0.0749061   0.0380630   0.0180382   0.0222627
    2  -0.0243153   0.0020709   0.0383089  -0.0101788   0.0128107   0.0155981
    3   0.0018004   0.0024785   0.0250604  -0.0450028   0.0060720  -0.0121139
           67          68          69          70          71          72
    1  -0.0212801  -0.0191310  -0.0033230  -0.0401993   0.0333431  -0.0060899
    2  -0.0233845  -0.0091374  -0.0219648   0.0180598  -0.0109759   0.0432383
    3  -0.0168697   0.0291778  -0.0424314   0.0517358  -0.0162905   0.0541099
           73          74          75          76          77          78
    1   0.0060149   0.0300514   0.0060510  -0.0378257   0.0015095   0.0227830
    2  -0.0269680   0.0270947   0.0237968  -0.0202811  -0.0092040  -0.0247743
    3   0.0526507  -0.0491554   0.0514201  -0.0377160  -0.0093956  -0.0228580
           79          80          81          82          83          84
    1  -0.0152343   0.0242424  -0.0372984  -0.0111533   0.0255288  -0.0023001
    2   0.0364127   0.0105431  -0.0170559  -0.0101619   0.0162804   0.0053274
    3   0.0105879  -0.0178497  -0.0109518   0.0068306   0.0091954  -0.0250812
           85          86          87          88          89          90
    1  -0.0026154   0.0209271  -0.0166513   0.0115850   0.0053260  -0.0223138
    2   0.0048650  -0.0055413  -0.0122059   0.0122150  -0.0266535   0.0029544
    3   0.0032519  -0.0121867  -0.0106342   0.0025463  -0.0007877   0.0124530
           91          92
    1   0.0410420  -0.0386839
    2   0.0205963  -0.0120326
    3   0.0190898   0.0352582
 Max gradient component =       9.469E-02
 RMS gradient           =       2.612E-02
 Computing fast CPCM-SWIG gradient
 Updating gradient with PCM contributions...
 -- total gradient after adding PCM contribution --
---------------------------------------------------
  Atom         X              Y              Z     
---------------------------------------------------
   1      -0.000091      -0.000155      -0.000205
   2       0.000073       0.000070       0.000047
   3      -0.000039       0.000063       0.000067
   4      -0.000165      -0.000035      -0.000122
   5       0.000159       0.000073      -0.000081
   6       0.000550      -0.000205       0.001123
   7      -0.000037       0.000006      -0.000003
   8      -0.000064       0.000026       0.000166
   9      -0.000046       0.000061       0.000031
  10      -0.000020      -0.000023      -0.000007
  11       0.000052      -0.000051       0.000123
  12       0.000193       0.000046      -0.000089
  13      -0.000107       0.000043       0.000054
  14      -0.000098      -0.000033       0.000043
  15      -0.000040      -0.000002      -0.000050
  16      -0.000003      -0.000093      -0.000150
  17      -0.000005       0.000019      -0.000028
  18       0.000038      -0.000020       0.000037
  19       0.000134      -0.000025       0.000141
  20      -0.000043      -0.000001      -0.000068
  21      -0.000011       0.000028      -0.000080
  22      -0.000058       0.000059      -0.000137
  23       0.000049      -0.000027       0.000119
  24       0.000099       0.000073      -0.000189
  25      -0.000084      -0.000043       0.000068
  26      -0.000068       0.000031       0.000117
  27       0.000124       0.000069       0.000095
  28      -0.000042      -0.000084       0.000016
  29      -0.000046      -0.000078      -0.000145
  30       0.000024      -0.000102      -0.000229
  31      -0.000097       0.000118       0.000074
  32      -0.000047      -0.000007      -0.000043
  33       0.000297       0.000034       0.000183
  34      -0.000034      -0.000074       0.000011
  35      -0.000074      -0.000039       0.000033
  36      -0.000079       0.000134      -0.000032
  37       0.000014      -0.000025      -0.000027
  38       0.000189      -0.000049      -0.000038
  39      -0.000221       0.000016       0.000126
  40      -0.000132      -0.000087       0.000202
  41      -0.000023      -0.000064      -0.000105
  42      -0.000118      -0.000189       0.000259
  43      -0.000018       0.000056      -0.000100
  44       0.000047      -0.000033      -0.000076
  45       0.000075       0.000071      -0.000015
  46      -0.000031      -0.000056       0.000034
  47       0.000034      -0.000073       0.000006
  48      -0.000100      -0.000103      -0.000132
  49       0.000052       0.000039      -0.000046
  50       0.000021      -0.000057       0.000025
  51      -0.000001       0.000010       0.000075
  52       0.000009       0.000116       0.000116
  53       0.000213       0.000166      -0.000221
  54       0.000031       0.000006       0.000012
  55      -0.000018       0.000138      -0.000004
  56      -0.000240       0.000088       0.000098
  57      -0.000070      -0.000141       0.000113
  58      -0.000079      -0.000094       0.000009
  59       0.000067       0.000007       0.000016
  60       0.000059       0.000014       0.000043
  61      -0.000035       0.000024      -0.000047
  62       0.000110      -0.000241      -0.000071
  63       0.000222       0.000100       0.000181
  64      -0.000173       0.000028       0.000029
  65      -0.000194       0.000058       0.000103
  66      -0.000035       0.000029       0.000127
  67      -0.000114       0.000300       0.000099
  68       0.000099      -0.000091       0.000007
  69       0.000027      -0.000036      -0.000075
  70       0.000106      -0.000181      -0.000027
  71       0.000154       0.000302      -0.000092
  72      -0.000086      -0.000077       0.000042
  73      -0.000033      -0.000020       0.000092
  74       0.000063       0.000094       0.000045
  75       0.000095      -0.000002      -0.000103
  76       0.000109      -0.000068      -0.000034
  77      -0.000642       0.000243      -0.001626
  78       0.000074      -0.000149      -0.000115
  79      -0.000015       0.000006      -0.000003
  80       0.000185      -0.000046      -0.000016
  81      -0.000250       0.000018      -0.000208
  82       0.000096       0.000069      -0.000035
  83      -0.000075       0.000044      -0.000108
  84      -0.000021      -0.000103       0.000103
  85      -0.000061      -0.000090       0.000105
  86       0.000111      -0.000042       0.000305
  87       0.000059       0.000059      -0.000002
  88      -0.000018       0.000027      -0.000107
  89       0.000034       0.000072       0.000061
  90      -0.000012      -0.000007      -0.000014
  91       0.000009       0.000076       0.000104
  92       0.000055      -0.000005       0.000021
---------------------------------------------------
 Number of fixed atoms: 0
 Gradient time:  CPU 29923.42 s  wall 1570.00 s

 *****************************************************
             Starting BFGS Algorithm
 *****************************************************
            LIBOPT3 RUN PARAMETERS

  Geometry Optimization Coordinates :
	Delocalized Natural Internal Coordinates

  Step Length Selection Method :
	Eigenvector Following Algorithm

  Convergence Criteria :
	Max Gradient Component    	3.00000000e-04
	Max Displacement Component	1.20000000e-03
	Absolute Energy Difference	1.00000000e-06

  Initial Hessian :
	Approximate Hessian - Simple Internal Coordinate Scaled

  Type of Verification :
	Verify with final updated Hessian
 *****************************************************

	OPTIMIZATION CYCLE:	1

 Scaling Magnitude of Eigenvalues
 	Minimum: -25.00000000	 Maximum: 25.00000000
 270 Hessian Eigenvalues to form next step
   0.10000000   0.10000000   0.10000000   0.10000000   0.10000000
   0.10000000   0.10000000   0.10000000   0.10000000   0.10000000
   0.10000000   0.10000000   0.10000000   0.10000000   0.10000011
   0.10000048   0.10000052   0.10000053   0.10000153   0.10000308
   0.10000376   0.10000435   0.10000468   0.10000577   0.10001107
   0.10001135   0.10001244   0.10001281   0.10001454   0.10001472
   0.10002090   0.10002497   0.10002765   0.10003822   0.10006315
   0.10006770   0.10007142   0.10018497   0.10019448   0.10032370
   0.10033247   0.10068313   0.10093315   0.10101958   0.10141392
   0.10280558   0.10321422   0.10457958   0.10500601   0.10819752
   0.10868150   0.10948244   0.11142176   0.11243985   0.11362303
   0.11409324   0.11502984   0.11701250   0.11878583   0.11947788
   0.12002267   0.12052498   0.12111812   0.12133401   0.12313960
   0.12376985   0.12435768   0.12527567   0.12532112   0.12627886
   0.12639124   0.12655669   0.12676656   0.12759104   0.12805687
   0.12813840   0.12833973   0.12938339   0.12947540   0.13094597
   0.13142615   0.13462130   0.13493536   0.13715193   0.13807731
   0.14043716   0.14199341   0.14447004   0.14798350   0.14891264
   0.15138516   0.15161007   0.15178673   0.15233948   0.15234798
   0.15274878   0.15505184   0.15581614   0.15616319   0.15641761
   0.15761159   0.15767957   0.15814577   0.16031771   0.16112544
   0.16135290   0.16219340   0.16954365   0.17090272   0.17283264
   0.17620087   0.17640439   0.17658271   0.17693356   0.17743295
   0.17838964   0.17896881   0.17954027   0.18006239   0.18029290
   0.18129549   0.18235735   0.18278204   0.18400338   0.18461510
   0.18521405   0.18992756   0.19154353   0.19516999   0.19547921
   0.19624436   0.19762498   0.19792212   0.19868573   0.19921383
   0.19946606   0.19965590   0.19973048   0.19973843   0.19976969
   0.19988191   0.19989622   0.19991398   0.19992108   0.19993002
   0.19993638   0.19995253   0.19995495   0.19995992   0.19996226
   0.19996883   0.19997536   0.19997805   0.19997870   0.19998483
   0.19999820   0.20000000   0.20000000   0.20000000   0.20000000
   0.20000000   0.20000000   0.20000000   0.20000000   0.20000000
   0.20561295   0.20859550   0.21209430   0.21969895   0.26418594
   0.27530217   0.29745161   0.40380076   0.40597715   0.41678380
   0.41748399   0.43244336   0.44704631   0.45737910   0.45919134
   0.46747680   0.46943418   0.47052298   0.47300653   0.48524770
   0.48923011   0.49106028   0.49271142   0.49393601   0.49728162
   0.49807338   0.49849701   0.49917068   0.49952589   0.49993797
   0.49998249   0.50000000   0.50000000   0.50000000   0.50000000
   0.50000000   0.50000000   0.50000000   0.50000000   0.50000000
[...]
  14       0.000022      -0.000000      -0.000011
  15       0.000011      -0.000011      -0.000004
  16      -0.000054      -0.000054      -0.000050
  17       0.000012       0.000004      -0.000010
  18       0.000010       0.000013      -0.000005
  19       0.000092       0.000029       0.000060
  20      -0.000021      -0.000001      -0.000019
  21      -0.000008       0.000001      -0.000027
  22      -0.000024       0.000035      -0.000050
  23       0.000012      -0.000002      -0.000002
  24       0.000019      -0.000012      -0.000002
  25      -0.000002       0.000007      -0.000029
  26      -0.000019       0.000001       0.000002
  27       0.000006       0.000030       0.000053
  28       0.000007      -0.000006      -0.000011
  29      -0.000014      -0.000035      -0.000022
  30       0.000027       0.000032      -0.000050
  31       0.000000       0.000002       0.000017
  32      -0.000004       0.000005      -0.000007
  33      -0.000026       0.000028      -0.000030
  34       0.000000      -0.000013       0.000001
  35       0.000005      -0.000005      -0.000006
  36       0.000005      -0.000040       0.000071
  37       0.000004       0.000011      -0.000024
  38       0.000017       0.000002      -0.000016
  39       0.000001       0.000004      -0.000016
  40      -0.000024      -0.000009      -0.000012
  41       0.000005      -0.000003      -0.000000
  42       0.000015      -0.000029      -0.000057
  43      -0.000005       0.000035       0.000021
  44       0.000000      -0.000000       0.000001
  45      -0.000031      -0.000000       0.000048
  46       0.000001       0.000016      -0.000018
  47      -0.000004       0.000004       0.000007
  48       0.000046      -0.000091      -0.000033
  49       0.000019      -0.000013      -0.000008
  50      -0.000130       0.000103       0.000043
  51      -0.000011       0.000012       0.000013
  52      -0.000003       0.000020       0.000012
  53       0.000084      -0.000060      -0.000055
  54       0.000001      -0.000030       0.000021
  55       0.000041      -0.000004      -0.000001
  56      -0.000097       0.000015       0.000096
  57       0.000022       0.000001       0.000003
  58      -0.000026      -0.000011       0.000021
  59       0.000019      -0.000006      -0.000007
  60       0.000021      -0.000015       0.000004
  61      -0.000005       0.000049      -0.000001
  62      -0.000022      -0.000007       0.000058
  63       0.000006      -0.000020       0.000017
  64       0.000009      -0.000020      -0.000022
  65       0.000038       0.000002      -0.000003
  66       0.000031       0.000001       0.000018
  67      -0.000030       0.000015      -0.000042
  68       0.000003       0.000012       0.000021
  69      -0.000006       0.000003      -0.000007
  70       0.000012      -0.000025       0.000010
  71       0.000023       0.000034       0.000005
  72      -0.000052      -0.000035       0.000019
  73       0.000014      -0.000030      -0.000013
  74       0.000042      -0.000008      -0.000030
  75      -0.000008      -0.000011       0.000006
  76      -0.000046       0.000013      -0.000015
  77      -0.000026       0.000021       0.000034
  78      -0.000015      -0.000049      -0.000060
  79       0.000006       0.000004       0.000003
  80       0.000008      -0.000025      -0.000000
  81       0.000005      -0.000037       0.000023
  82      -0.000075       0.000027       0.000002
  83       0.000005      -0.000008       0.000009
  84       0.000050       0.000024       0.000012
  85       0.000038       0.000040       0.000060
  86      -0.000023      -0.000035      -0.000022
  87       0.000013      -0.000013      -0.000012
  88       0.000016       0.000038       0.000049
  89       0.000012       0.000000      -0.000014
  90      -0.000008      -0.000010       0.000003
  91       0.000006       0.000004      -0.000005
  92      -0.000014       0.000023      -0.000010
---------------------------------------------------
 Number of fixed atoms: 0
 Gradient time:  CPU 30477.59 s  wall 1615.32 s

     Step 45	:
        Energy is -3553.5993702798
                            Maximum         Tolerance       Converged?
         Gradient           7.05490392e-05	3.00000000e-04	true
         Displacement       2.58027504e-03	1.20000000e-03	false
         Energy change      7.49684659e-07	1.00000000e-06	true

	 Optimization Converged in 45 cycles

 *****************************************************
             End of BFGS Algorithm
 *****************************************************
		----------------------------------
		   Verification of Optimization
		----------------------------------

 Eigenvalues of Hessian in Optimization Verification
   0.00045005   0.00167167   0.00419378   0.00590704   0.01047652
   0.01710736   0.02242749   0.03339611   0.04114687   0.04772759
   0.06939614   0.09382699   0.10000044   0.10000084   0.10000133
   0.10000242   0.10000351   0.10000479   0.10000558   0.10000650
   0.10000834   0.10000944   0.10001243   0.10001433   0.10001634
   0.10002025   0.10002598   0.10002823   0.10003533   0.10003867
   0.10005412   0.10006753   0.10008680   0.10012670   0.10018376
   0.10021290   0.10023393   0.10036487   0.10045812   0.10055614
   0.10065779   0.10079166   0.10118521   0.10171769   0.10202148
   0.10268362   0.10321970   0.10350289   0.10483605   0.10561635
   0.10682682   0.10784857   0.10936620   0.11047884   0.11191561
   0.11380600   0.11408434   0.11532305   0.11698490   0.11726323
   0.11944697   0.11966707   0.11997359   0.12078255   0.12125544
   0.12242114   0.12384154   0.12435043   0.12515011   0.12609935
   0.12642783   0.12664875   0.12700322   0.12765139   0.12777974
   0.12854719   0.12908518   0.12939217   0.12973403   0.13037519
   0.13145343   0.13404563   0.13546574   0.13668840   0.13765276
   0.13918351   0.14140557   0.14400983   0.14612271   0.14883764
   0.14937321   0.15146802   0.15187484   0.15214873   0.15230005
   0.15273901   0.15536625   0.15554841   0.15601064   0.15617332
   0.15711460   0.15778837   0.15812284   0.15862373   0.16084737
   0.16112379   0.16201647   0.16905337   0.17087294   0.17247321
   0.17395995   0.17582321   0.17629337   0.17666628   0.17714672
   0.17799265   0.17905646   0.17954170   0.18005382   0.18057219
   0.18152584   0.18201374   0.18273773   0.18457266   0.18517212
   0.18656540   0.18938315   0.19083163   0.19135940   0.19316357
   0.19482318   0.19643319   0.19659847   0.19786813   0.19820878
   0.19864944   0.19930587   0.19942943   0.19957652   0.19970206
   0.19973631   0.19981131   0.19982981   0.19984561   0.19990544
   0.19992638   0.19993730   0.19993983   0.19996703   0.19998528
   0.20000108   0.20003311   0.20019242   0.20025180   0.20047640
   0.20113465   0.20172837   0.20245150   0.20361736   0.20830927
   0.20980844   0.21065877   0.22067186   0.22553210   0.23279384
   0.23887050   0.24780496   0.26975331   0.27170246   0.28084909
   0.29640566   0.33728115   0.37445264   0.39261809   0.40232436
   0.41442211   0.41973757   0.43476037   0.44719109   0.45182230
   0.45514354   0.46370497   0.46789281   0.47051982   0.47107304
   0.47507265   0.48164863   0.48623684   0.48880154   0.48942173
   0.49188448   0.49307277   0.49485557   0.49512796   0.49679094
   0.49830598   0.49878445   0.49910213   0.49955027   0.49970843
   0.49977289   0.49978132   0.49984846   0.49988693   0.49997400
   0.49997851   0.49999049   0.49999412   0.49999666   0.50000000
   0.50000000   0.50000000   0.50000000   0.50000000   0.50000000
   0.50000000   0.50000000   0.50000000   0.50000000   0.50000000
   0.50000000   0.50000000   0.50000000   0.50000000   0.50000000
   0.50000000   0.50000000   0.50000000   0.50000000   0.50000000
   0.50000000   0.50000001   0.50000002   0.50000003   0.50000005
   0.50000007   0.50000009   0.50000012   0.50000017   0.50000031
   0.50000046   0.50000074   0.50000079   0.50000138   0.50000223
   0.50000333   0.50000751   0.50000931   0.50001137   0.50001920
   0.50008333   0.50011291   0.50024506   0.50027070   0.50134685
   0.50279460   0.50373000   0.50556796   0.50601534   0.50764245
   0.50884527   0.50973610   0.51369851   0.51642775   0.52595953
   0.52986518   0.54659333   0.55476254   0.57640079   0.70206139


 Found a minimum
		---------------------------------
		       End of Verification
		---------------------------------

 Final energy is -3553.599370279790

	******************************
	**  OPTIMIZATION CONVERGED  **
	******************************
 Adding empirical dispersion correction 
 ----------------------------------------------------------------
 Doing -D3(BJ) with
 s6  =   1.00000
 s8  =   1.98890
 a1  =   0.39810
 a2  =   4.42110
 -D3 energy without 3body term =     -0.2277867418 hartrees
 ----------------------------------------------------------------
             Standard Nuclear Orientation (Angstroms)
    I     Atom           X                Y                Z
 ----------------------------------------------------------------
    1      C       3.3366900439    -1.2611271804    -1.7357199953
    2      C       4.6526781718    -1.6048935290    -1.4348803997
    3      C       5.7138898695    -1.3066736817    -2.3246995491
    4      C       5.4186092149    -0.6705751381    -3.5410564974
    5      C       4.1017104499    -0.3294098271    -3.8715025168
    6      C       3.0438757913    -0.5860910967    -2.9763035821
    7      H       4.8350243455    -2.0436806452    -0.4524259403
    8      O       1.7901816046    -0.2226326736    -3.1701589267
    9      C       7.1313456437    -1.4751759510    -1.9130380620
   10      O       8.0601360344    -0.8439302958    -2.4415254867
   11      N       7.3642850365    -2.3449775278    -0.8706774898
   12      H       6.5391331376    -2.8127965646    -0.5120871317
   13      C       8.3636876239    -2.0526094822     0.1552559752
   14      H       8.8102037906    -2.9951521018     0.5082724694
   15      H       9.1600858330    -1.4619311320    -0.3205833222
   16      C       7.7241915357    -1.2917581155     1.3274345684
   17      H       8.4179408267    -1.2854940532     2.1865484686
   18      H       6.8268477929    -1.8490379189     1.6492493893
   19      C       7.3344512380     0.1526823022     0.9656361198
   20      H       6.9238792530     0.1810154021    -0.0555826777
   21      H       8.2505349491     0.7696394386     0.9488548930
   22      N       6.3474281438     0.7971559678     1.8317527012
   23      H       6.5983176904     0.6450529930     2.8117016363
   24      C       3.9722969818     1.2343333393     2.3830314717
   25      H       2.9506660359     0.8668008481     2.1839509386
   26      H       4.1458381697     1.1012465707     3.4660634698
   27      C       4.9670341601     0.3605603611     1.6100508670
   28      H       4.7910221992    -0.7046398570     1.8707208824
   29      H       4.7683283941     0.4369858132     0.5279903038
   30      C       4.0712294814     2.7247260962     2.0361636077
   31      H       3.5428144726     3.3273598749     2.7947334597
   32      H       5.1325725648     3.0171908033     2.0708944152
   33      C       3.5187076649     3.0919823410     0.6530547013
   34      H       3.8453104726     2.3670835194    -0.1044151290
   35      H       3.9068627894     4.0798476752     0.3547287077
   36      N       2.0635649767     3.1508626176     0.6032855064
   37      H       1.6244404415     3.9869687384     0.9722517496
   38      C       1.2660832496     2.3019673124    -0.0991941663
   39      O       1.7888810825     1.2743786171    -0.6396412249
   40      C      -0.1310099701     2.6245470806    -0.1763423964
   41      H      -0.5071498075     3.4425983978     0.4399273357
   42      C      -2.4967771477     2.3053593943    -0.8752778882
   43      H      -2.8586026037     1.7747778328     0.0208912337
   44      H      -2.6251983093     3.3824604725    -0.6985869629
   45      C      -3.3347859533     1.9235007898    -2.0824814728
   46      O      -3.4349407856     2.6681280637    -3.0654582223
   47      N      -3.9659385376     0.7307889838    -1.9817023643
   48      C      -4.8975118165     0.2124541348    -2.9715076477
   49      H      -3.8063703145     0.1641136576    -1.1526345151
   50      C      -6.2868537709     0.0028491584    -2.3609985298
   51      H      -4.5112147125    -0.7400408435    -3.3684463896
   52      H      -4.9239110716     0.9418200460    -3.7933605346
   53      C      -6.9555454916     1.3104587008    -1.9294689169
   54      H      -6.9220120126    -0.5281909616    -3.0917288804
   55      H      -6.1802070535    -0.6724402185    -1.4956967004
   56      C      -8.1029473947     1.1220878021    -0.9233310223
   57      H      -7.3416277736     1.8432118114    -2.8167194623
   58      H      -6.1965651913     1.9737432051    -1.4818005481
   59      H      -8.5831261993     2.1032607919    -0.7525393763
   60      H      -8.8751812084     0.4671984903    -1.3645193557
   61      C      -5.1576835293    -1.6980516326     1.0092351621
   62      C      -3.9033819920    -2.5236873598    -0.9510994851
   63      O      -6.2336701225    -2.1142998809     0.5284314843
   64      C      -3.8731139150    -1.8464722922     0.2778403805
   65      C      -2.7783538677    -2.5637312271    -1.7799043516
   66      C      -2.6532348573    -1.2546088555     0.7044425695
   67      C      -1.5886351457    -1.9164842739    -1.4024808221
   68      C      -1.5094696240    -1.3016585238    -0.0953493755
   69      H      -2.5695127127    -0.7155070541     1.6516640027
   70      O      -0.5264354319    -1.8071139477    -2.1727820194
   71      C      -1.0124517968     1.9667531177    -1.0200349462
   72      O      -0.7069053320     1.0581763790    -1.8816561350
   73      H       3.8779363822     0.1778217909    -4.8145394403
   74      O       2.3134064039    -1.4739256864    -0.9155869079
   75      H      -2.8241554032    -3.0501307163    -2.7581593370
   76      O      -0.3410392856    -0.7633218686     0.2344437288
   77      Fe      0.7278578784    -0.3907824177    -1.4405394517
   78      N      -7.7481864954     0.5598582558     0.3843151233
   79      H      -7.4510304932    -0.4129467539     0.2691891503
   80      N      -5.1321104959    -1.0612989838     2.2142540213
   81      H      -4.2537158570    -0.6605191811     2.5203589790
   82      C      -6.3397049100    -0.5573288022     2.8531930749
   83      H      -7.1739268102    -1.1725947173     2.4930696283
   84      H      -6.2551093567    -0.7079851064     3.9407871787
   85      C      -6.6019184355     0.9285398599     2.5594159752
   86      H      -7.5495915951     1.2061082281     3.0527165512
   87      H      -5.8026689667     1.5336929632     3.0231019984
   88      C      -6.6772647610     1.2832950030     1.0726331703
   89      H      -6.8837120006     2.3641312287     0.9840347673
   90      H      -5.6803288188     1.1233395949     0.6122652313
   91      H      -4.8414039318    -2.9802498466    -1.2661543174
   92      H       6.2403248472    -0.4202543433    -4.2144620759
 ----------------------------------------------------------------
 Nuclear Repulsion Energy =        7499.34202622 hartrees
 There are      194 alpha and      189 beta electrons

Z-matrix Print:
$molecule
-2 6
Fe
O  1 1.990663
C  2 1.328537 1 111.317771
C  3 1.393020 2 123.696610 1 163.200503 0
H  4 1.091330 3 116.838972 2 -1.980122 0
C  4 1.416645 3 121.337536 2 -177.455004 0
C  6 1.404043 4 118.815020 3 -1.022170 0
H  7 1.091491 6 118.689391 4 178.556105 0
C  7 1.399932 6 120.846037 4 0.278238 0
H  9 1.093928 7 120.591390 6 179.198974 0
C  9 1.409355 7 120.780200 6 1.597640 0
O  11 1.319633 9 124.722692 7 175.523995 0
C  6 1.485611 4 121.118389 3 170.141349 0
O  13 1.241137 6 122.569918 4 -155.574223 0
N  13 1.377436 6 116.274167 4 22.279731 0
H  15 1.014060 13 114.916993 6 2.302004 0
C  15 1.461788 13 121.360914 6 -140.844116 0
H  17 1.099806 15 107.387878 13 -30.846006 0
H  17 1.101083 15 109.332895 13 -147.484134 0
C  17 1.536832 15 110.477212 13 90.868602 0
H  20 1.104242 17 108.094187 15 50.980455 0
H  20 1.104266 17 109.559350 15 166.837462 0
C  20 1.539222 17 112.996450 15 -70.556432 0
H  23 1.101027 20 109.668895 17 39.274464 0
H  23 1.104594 20 108.525179 17 -76.463923 0
N  23 1.462778 20 116.431631 17 160.414419 0
H  26 1.022928 23 109.646686 20 46.876778 0
C  26 1.464669 23 114.518006 20 -76.497128 0
H  28 1.102805 26 107.318087 23 -50.508993 0
H  28 1.110667 26 113.560232 23 65.750945 0
C  28 1.533128 26 111.425567 23 -170.709442 0
H  31 1.103831 28 108.651794 26 179.993801 0
H  31 1.104892 28 108.883923 26 -64.533598 0
C  31 1.533420 28 113.454846 26 57.273746 0
H  34 1.101449 31 108.246888 28 -48.033252 0
H  34 1.103548 31 110.143937 28 -164.872031 0
C  34 1.533997 31 114.419261 28 72.657243 0
H  37 1.098139 34 110.901620 31 -43.808150 0
H  37 1.102516 34 109.370672 31 -162.154605 0
N  37 1.457184 34 113.587468 31 77.342297 0
H  40 1.013923 37 116.960732 34 78.982538 0
C  40 1.360176 37 125.303529 34 -113.328208 0
O  42 1.273318 40 118.825667 37 8.700051 0
C  42 1.435924 40 117.257820 37 -171.672199 0
H  44 1.091090 42 118.261805 40 -8.504674 0
C  44 1.386164 42 123.009985 40 169.866829 0
O  46 1.288899 44 126.203464 42 -4.172615 0
C  46 1.529324 44 117.032512 42 172.992570 0
H  48 1.099026 46 110.219745 44 39.419853 0
H  48 1.102521 46 106.792733 44 -77.195912 0
C  48 1.518359 46 113.874702 44 161.025641 0
O  51 1.237232 48 121.668083 46 -84.406019 0
N  51 1.353171 48 114.827394 46 96.548839 0
H  53 1.016827 51 118.603310 48 -2.984671 0
C  53 1.454721 51 124.199425 48 175.200898 0
H  55 1.099142 53 106.720110 51 2.930601 0
H  55 1.101831 53 109.185348 51 119.688219 0
C  55 1.531968 53 110.999452 51 -118.788493 0
H  58 1.102786 55 107.985254 53 -56.641060 0
H  58 1.104263 55 108.888309 53 -171.641944 0
C  58 1.530754 55 113.056335 53 65.458834 0
H  61 1.102907 58 109.119394 55 -39.284468 0
H  61 1.104581 58 109.770321 55 76.538007 0
C  61 1.537637 58 113.940501 55 -161.041696 0
H  64 1.104478 61 109.450922 58 -58.615462 0
H  64 1.105641 61 108.447837 58 -174.437659 0
N  64 1.466934 61 116.729493 58 63.497689 0
H  67 1.023672 64 109.522287 61 -67.356497 0
C  67 1.464246 64 113.988590 61 53.832684 0
H  69 1.103937 67 108.012596 64 44.685297 0
H  69 1.109687 67 113.006199 64 -72.262999 0
C  69 1.530376 67 112.220525 64 164.003390 0
H  72 1.103845 69 109.487729 67 -61.250593 0
H  72 1.104543 69 108.449208 67 -177.923341 0
C  72 1.537162 69 114.717523 67 59.948804 0
H  75 1.097346 72 110.461386 69 -64.046843 0
H  75 1.101233 72 109.517535 69 177.362184 0
N  75 1.456198 72 113.087844 69 55.841354 0
H  78 1.012868 75 116.720172 72 64.548495 0
C  78 1.363150 75 122.274655 72 -95.162838 0
O  80 1.249873 78 120.782015 75 -14.534813 0
C  80 1.485627 78 117.752255 75 163.927027 0
C  82 1.403506 80 117.428334 78 178.912165 0
H  83 1.089768 82 118.285134 80 -5.228817 0
C  83 1.397930 82 121.037841 80 171.997934 0
H  85 1.093465 83 120.626892 82 -176.910070 0
C  85 1.405990 83 120.573911 82 -0.391017 0
O  87 1.316660 85 124.321474 83 -173.818665 0
C  82 1.421407 80 123.553583 78 -6.130883 0
H  89 1.093100 82 122.084198 80 5.145802 0
C  89 1.396453 82 121.131505 80 -172.833738 0
O  91 1.328081 89 124.382274 82 179.505503 0
$end

 -----------------------------------------------------------------------
                  END OF GEOMETRY OPTIMIZER USING LIBOPT3               
 -----------------------------------------------------------------------
 Total job time:  184610.94s(wall), 3016448.49s(cpu) 
 Wed Aug 16 21:59:20 2023

        *************************************************************
        *                                                           *
        *  Thank you very much for using Q-Chem.  Have a nice day.  *
        *                                                           *
        *************************************************************


