
Running Job 1 of 1 C_FePBstar_enol_L_ctL_3sextet_camb3lyo_augccpVDZ_pcmH2O_tddft100.in
qchem C_FePBstar_enol_L_ctL_3sextet_camb3lyo_augccpVDZ_pcmH2O_tddft100.in_2960647.0 /data/scratch/C_FePBstar_enol_L_ctL_3sextet_camb3lyo_augccpVDZ_pcmH2O_tddft10020240227112812/ 0
/opt/qchem/6.0.1/exe/qcprog.exe_s C_FePBstar_enol_L_ctL_3sextet_camb3lyo_augccpVDZ_pcmH2O_tddft100.in_2960647.0 /data/scratch/C_FePBstar_enol_L_ctL_3sextet_camb3lyo_augccpVDZ_pcmH2O_tddft10020240227112812/
                  Welcome to Q-Chem
     A Quantum Leap Into The Future Of Chemistry


 Q-Chem 6.0, Q-Chem, Inc., Pleasanton, CA (2022)

 E. Epifanovsky,  A. T. B. Gilbert,  Xintian Feng,  Joonho Lee,  Yuezhi Mao,  
 N. Mardirossian,  P. Pokhilko,  A. White,  M. Wormit,  M. P. Coons,  
 A. L. Dempwolff,  Zhengting Gan,  D. Hait,  P. R. Horn,  L. D. Jacobson,  
 I. Kaliman,  J. Kussmann,  A. W. Lange,  Ka Un Lao,  D. S. Levine,  Jie Liu,  
 S. C. McKenzie,  A. F. Morrison,  K. Nanda,  F. Plasser,  D. R. Rehn,  
 M. L. Vidal,  Zhi-Qiang You,  Ying Zhu,  B. Alam,  B. Albrecht,  
 A. Aldossary,  E. Alguire,  J. H. Andersen,  V. Athavale,  D. Barton,  
 K. Begam,  A. Behn,  N. Bellonzi,  Y. A. Bernard,  E. J. Berquist,  
 H. Burton,  A. Carreras,  K. Carter-Fenk,  Romit Chakraborty,  
 Chandrima Chakravarty,  Junhan Chen,  A. D. Chien,  K. D. Closser,  
 V. Cofer-Shabica,  L. Cunha,  S. Dasgupta,  Jia Deng,  M. de Wergifosse,  
 M. Diedenhofen,  Hainam Do,  S. Ehlert,  Po-Tung Fang,  S. Fatehi,  
 Qingguo Feng,  T. Friedhoff,  B. Ganoe,  J. Gayvert,  Qinghui Ge,  
 G. Gidofalvi,  M. Goldey,  J. Gomes,  C. Gonzalez-Espinoza,  S. Gulania,  
 A. Gunina,  J. A. Gyamfi,  M. W. D. Hanson-Heine,  P. H. P. Harbach,  
 A. W. Hauser,  M. F. Herbst,  M. Hernandez Vera,  M. Hodecker,  
 Z. C. Holden,  S. Houck,  Xunkun Huang,  Kerwin Hui,  B. C. Huynh,  
 K. Ikeda,  M. Ivanov,  Hyunjun Ji,  Zuxin Jin,  Hanjie Jiang,  B. Kaduk,  
 S. Kaehler,  R. Kang,  K. Khistyaev,  Jaehoon Kim,  Yongbin Kim,  
 P. Klunzinger,  Z. Koczor-Benda,  Joong Hoon Koh,  D. Kosenkov,  
 Saikiran Kotaru,  L. Koulias,  T. Kowalczyk,  C. M. Krauter,  K. Kue,  
 A. Kunitsa,  T. Kus,  A. Landau,  K. V. Lawler,  D. Lefrancois,  S. Lehtola,  
 Rain Li,  Shaozhi Li,  Yi-Pei Li,  Jiashu Liang,  M. Liebenthal,  
 Hung-Hsuan Lin,  You-Sheng Lin,  Fenglai Liu,  Kuan-Yu Liu,  
 M. Loipersberger,  A. Luenser,  C. Malbon,  A. Manjanath,  P. Manohar,  
 E. Mansoor,  S. F. Manzer,  Shan-Ping Mao,  A. V. Marenich,  T. Markovich,  
 S. Mason,  F. Matz,  S. A. Maurer,  P. F. McLaughlin,  M. F. S. J. Menger,  
 J.-M. Mewes,  S. A. Mewes,  P. Morgante,  Mohammad Mostafanejad,  
 J. W. Mullinax,  K. J. Oosterbaan,  G. Paran,  V. Parravicini,  
 Alexander C. Paul,  Suranjan K. Paul,  F. Pavosevic,  Zheng Pei,  S. Prager,  
 E. I. Proynov,  E. Ramos,  B. Rana,  A. E. Rask,  A. Rettig,  R. M. Richard,  
 F. Rob,  E. Rossomme,  T. Scheele,  M. Scheurer,  M. Schneider,  
 P. E. Schneider,  N. Sergueev,  S. M. Sharada,  Hengyuan Shen,  
 W. Skomorowski,  D. W. Small,  C. J. Stein,  Yingli Su,  Yu-Chuan Su,  
 E. J. Sundstrom,  Zhen Tao,  J. Thirman,  Hung-Yi Tsai,  T. Tsuchimochi,  
 N. M. Tubman,  C. Utku,  S. P. Veccham,  O. Vydrov,  J. Wenzel,  
 Jonathan Wong,  J. Witte,  A. Yamada,  Chou-Hsun Yang,  Kun Yao,  
 S. Yeganeh,  S. R. Yost,  A. Zech,  F. Zeller,  Igor Ying Zhang,  
 Xing Zhang,  Yu Zhang,  D. Zuev,  A. Aspuru-Guzik,  A. T. Bell,  
 N. A. Besley,  K. B. Bravaya,  B. R. Brooks,  D. Casanova,  Jeng-Da Chai,  
 Hsing-Ta Chen,  S. Coriani,  C. J. Cramer,  A. E. DePrince, III,  
 R. A. DiStasio Jr.,  A. Dreuw,  B. D. Dunietz,  T. R. Furlani,  
 W. A. Goddard III,  S. Grimme,  S. Hammes-Schiffer,  T. Head-Gordon,  
 W. J. Hehre,  Chao-Ping Hsu,  T.-C. Jagau,  Yousung Jung,  A. Klamt,  
 Jing Kong,  D. S. Lambrecht,  Xiangyuan Li,  WanZhen Liang,  N. J. Mayhall,  
 C. W. McCurdy,  J. B. Neaton,  T. Neudecker,  C. Ochsenfeld,  
 J. A. Parkhill,  R. Peverati,  V. A. Rassolov,  Haisheng Ren,  Yihan Shao,  
 L. V. Slipchenko,  R. P. Steele,  J. E. Subotnik,  A. J. W. Thom,  
 A. Tkatchenko,  D. G. Truhlar,  T. Van Voorhis,  Fan Wang,  
 T. A. Wesolowski,  K. B. Whaley,  H. L. Woodcock III,  P. M. Zimmerman,  
 S. Faraji,  P. M. W. Gill,  M. Head-Gordon,  J. M. Herbert,  A. I. Krylov

 Contributors to earlier versions of Q-Chem not listed above: 
 R. D. Adamson,  B. Austin,  R. Baer,  J. Baker,  G. J. O. Beran,  
 K. Brandhorst,  S. T. Brown,  E. F. C. Byrd,  Arup K. Chakraborty,  
 G. K. L. Chan,  Chun-Min Chang,  Yunqing Chen,  C.-L. Cheng,  
 Siu Hung Chien,  D. M. Chipman,  D. L. Crittenden,  H. Dachsel,  
 R. J. Doerksen,  A. D. Dutoi,  R. G. Edgar,  J. Fosso-Tande,  
 L. Fusti-Molnar,  D. Ghosh,  A. Ghysels,  A. Golubeva-Zadorozhnaya,  
 J. Gonthier,  M. S. Gordon,  S. R. Gwaltney,  G. Hawkins,  J. E. Herr,  
 A. Heyden,  S. Hirata,  E. G. Hohenstein,  G. Kedziora,  F. J. Keil,  
 C. Kelley,  Jihan Kim,  R. A. King,  R. Z. Khaliullin,  P. P. Korambath,  
 W. Kurlancheek,  A. Laurent,  A. M. Lee,  M. S. Lee,  S. V. Levchenko,  
 Ching Yeh Lin,  D. Liotard,  E. Livshits,  R. C. Lochan,  I. Lotan,  
 L. A. Martinez-Martinez,  P. E. Maslen,  N. Nair,  D. P. O'Neill,  
 D. Neuhauser,  E. Neuscamman,  C. M. Oana,  R. Olivares-Amaya,  R. Olson,  
 T. M. Perrine,  B. Peters,  P. A. Pieniazek,  A. Prociuk,  Y. M. Rhee,  
 J. Ritchie,  M. A. Rohrdanz,  E. Rosta,  N. J. Russ,  H. F. Schaefer III,  
 M. W. Schmidt,  N. E. Schultz,  S. Sharma,  N. Shenvi,  C. D. Sherrill,  
 A. C. Simmonett,  A. Sodt,  T. Stein,  D. Stuck,  K. S. Thanthiriwatte,  
 V. Vanovschi,  L. Vogt,  Tao Wang,  A. Warshel,  M. A. Watson,  
 C. F. Williams,  Q. Wu,  X. Xu,  Jun Yang,  W. Zhang,  Yan Zhao

   Please cite Q-Chem as follows:
  "Software for the frontiers of quantum chemistry:
   An overview of developments in the Q-Chem 5 package"
   J. Chem. Phys. 155, 084801 (2021)
   https://doi.org/10.1063/5.0055522 (open access)

 Q-Chem 6.0.2 for Intel X86 EM64T Linux

 Parts of Q-Chem use Armadillo 9.900.5 (Nocturnal Misbehaviour).
 http://arma.sourceforge.net/

 Q-Chem begins on Tue Feb 27 11:28:14 2024  

 Host: 
0

     Scratch files written to /data/scratch/C_FePBstar_enol_L_ctL_3sextet_camb3lyo_augccpVDZ_pcmH2O_tddft10020240227112812//
 Dec722 |scratch|qcdevops|jenkins|workspace|build_RNUM 8907   
 Processing $rem in /opt/qchem/6.0.1/config/preferences:
 Processing $rem in /home/sgardner/.qchemrc:
 Symmetry turned off for PCM/SM12/SMD calculation

 Checking the input file for inconsistencies... 	...done.

--------------------------------------------------------------
User input:
--------------------------------------------------------------
$molecule
-2 6
C    3.1636632   -1.4843723   -1.3131580
C    4.4975791   -1.8611548   -1.1718231
C    5.3908479   -1.8313608   -2.2710096
C    4.9050336   -1.4382075   -3.5284785
C    3.5649382   -1.0700639   -3.6971866
C    2.6802944   -1.0528872   -2.6007519
H    4.8368525   -2.1036430   -0.1630257
O    1.4292084   -0.6330363   -2.6486288
C    6.8531577   -2.0124750   -2.0787977
O    7.6910582   -1.5679471   -2.8793147
N    7.2421659   -2.6659945   -0.9308089
H    6.4815921   -2.9895044   -0.3438701
C    8.4248878   -2.2478228   -0.1811096
H    8.9021750   -3.1309177    0.2715436
H    9.1331993   -1.8157221   -0.9026967
C    8.0402984   -1.2288642    0.9032446
H    8.8814309   -1.1017680    1.6071855
H    7.2000201   -1.6462170    1.4858616
C    7.6406063    0.1401719    0.3244879
H    7.0465206   -0.0004256   -0.5921594
H    8.5579857    0.6739571    0.0185882
N    6.8600628    1.0128565    1.2016026
H    7.2908894    1.0416000    2.1290207
C    4.6601239    1.7008108    2.1088908
H    3.6088600    1.3716136    2.1842237
H    5.0445865    1.7458973    3.1439130
C    5.4505020    0.6390668    1.3347236
H    5.2975753   -0.3481238    1.8207256
H    5.0392579    0.5344139    0.3167635
C    4.7367566    3.0998743    1.4849838
H    4.3668356    3.8546959    2.1999720
H    5.7954620    3.3308793    1.2883741
C    3.9647177    3.2550340    0.1690479
H    4.1308451    2.3893995   -0.4850111
H    4.3309881    4.1482450   -0.3634164
N    2.5253456    3.3991610    0.3466469
H    2.1876033    4.3164935    0.6165928
C    1.5908155    2.5062536   -0.0793055
O    1.9746518    1.3681308   -0.4986830
C    0.2134235    2.9226125   -0.0206933
H   -0.0256612    3.8642064    0.4752249
C   -2.2494335    2.6479109   -0.3935785
H   -2.6301985    2.0556646    0.4564451
H   -2.2951705    3.7121123   -0.1311634
C   -3.1304354    2.4074879   -1.6092570
O   -3.4026978    3.3138808   -2.4065239
N   -3.5787679    1.1363852   -1.7416470
C   -4.2853264    0.6575371   -2.9209235
H   -3.2177284    0.4367416   -1.0967852
C   -5.7101924    0.1926140   -2.6135923
H   -3.7090889   -0.1722116   -3.3641629
H   -4.2963872    1.4877445   -3.6414961
C   -6.6264314    1.3112650   -2.1175693
H   -6.1332538   -0.2473586   -3.5354161
H   -5.6705237   -0.6174990   -1.8672085
C   -8.0372046    0.8141142   -1.7592848
H   -6.7114329    2.0902592   -2.8972131
H   -6.1671418    1.8007452   -1.2414648
H   -8.6894785    1.6842646   -1.5649792
H   -8.4601426    0.2947729   -2.6384393
C   -5.3850164   -1.7789975    0.9012641
C   -3.9581042   -1.3936268    1.0500884
O   -5.8503180   -2.1759709   -0.1878950
C   -3.4805517   -0.6402469    2.1354649
C   -3.0584165   -1.7512640    0.0143447
C   -2.1369621   -0.2513337    2.1998047
C   -1.7152953   -1.3700891    0.0537451
C   -1.2364943   -0.5944994    1.1764770
H   -1.7758518    0.3582708    3.0325003
O   -0.8264447   -1.6422427   -0.8964932
C   -0.8055339    2.1955454   -0.6108915
O   -0.6575756    1.1192270   -1.3057590
H    3.1936394   -0.7503593   -4.6752750
O    2.2958209   -1.4444500   -0.3079059
H   -3.4303796   -2.3214130   -0.8391500
O    0.0282849   -0.2253670    1.1474867
Fe    0.7022205   -0.3438250   -0.7740998
N   -8.1537492   -0.0906538   -0.6123977
H   -7.5492620   -0.9040962   -0.7586151
N   -6.1776184   -1.6823043    2.0052965
H   -5.7633613   -1.3434016    2.8647090
C   -7.6299696   -1.7210423    1.9388693
H   -7.8989355   -2.3227723    1.0606838
H   -8.0095547   -2.2438270    2.8301729
C   -8.2610643   -0.3229303    1.8538072
H   -9.3565749   -0.4453816    1.7960963
H   -8.0406811    0.2265890    2.7861238
C   -7.7868201    0.5184166    0.6666895
H   -8.2749793    1.5068014    0.7231409
H   -6.6976866    0.7078070    0.7677222
H   -4.1525059   -0.3044749    2.9283021
H    5.5995769   -1.3966405   -4.3693349
$end

$rem
BASIS  =  gen
CIS_N_ROOTS  =  100
EXCHANGE  =  CAM-B3LYP
GUI  =  2
JOB_TYPE  =  SP
SCF_CONVERGENCE  =  8
SOLVENT_METHOD  =  PCM
UNRESTRICTED  =  1
BASIS GEN
PURECART 11
MEM_TOTAL  =  30000
$end

$pcm
THEORY  CPCM
$end

$solvent
DIELECTRIC  78.39
$end

$van_der_waals
26   2.44
$end

!----------------------------------------------------------------------
! Basis Set Exchange
! Basis set: aug-cc-pVDZ
!----------------------------------------------------------------------

$basis
H     0
S   4   1.00
1.301000D+01           1.968500D-02
1.962000D+00           1.379770D-01
4.446000D-01           4.781480D-01
1.220000D-01           5.012400D-01
S   1   1.00
1.220000D-01           1.000000D+00
S   1   1.00
0.0297400              1.0000000
P   1   1.00
7.270000D-01           1.0000000
P   1   1.00
0.1410000              1.0000000
****
C     0
S   9   1.00
6.665000D+03           6.920000D-04
1.000000D+03           5.329000D-03
2.280000D+02           2.707700D-02
6.471000D+01           1.017180D-01
2.106000D+01           2.747400D-01
7.495000D+00           4.485640D-01
2.797000D+00           2.850740D-01
5.215000D-01           1.520400D-02
1.596000D-01          -3.191000D-03
S   9   1.00
6.665000D+03          -1.460000D-04
1.000000D+03          -1.154000D-03
2.280000D+02          -5.725000D-03
6.471000D+01          -2.331200D-02
2.106000D+01          -6.395500D-02
7.495000D+00          -1.499810D-01
2.797000D+00          -1.272620D-01
5.215000D-01           5.445290D-01
1.596000D-01           5.804960D-01
S   1   1.00
1.596000D-01           1.000000D+00
S   1   1.00
0.0469000              1.0000000
P   4   1.00
9.439000D+00           3.810900D-02
2.002000D+00           2.094800D-01
5.456000D-01           5.085570D-01
1.517000D-01           4.688420D-01
P   1   1.00
1.517000D-01           1.000000D+00
P   1   1.00
0.0404100              1.0000000
D   1   1.00
5.500000D-01           1.0000000
D   1   1.00
0.1510000              1.0000000
****
N     0
S   9   1.00
9.046000D+03           7.000000D-04
1.357000D+03           5.389000D-03
3.093000D+02           2.740600D-02
8.773000D+01           1.032070D-01
2.856000D+01           2.787230D-01
1.021000D+01           4.485400D-01
3.838000D+00           2.782380D-01
7.466000D-01           1.544000D-02
2.248000D-01          -2.864000D-03
S   9   1.00
9.046000D+03          -1.530000D-04
1.357000D+03          -1.208000D-03
3.093000D+02          -5.992000D-03
8.773000D+01          -2.454400D-02
2.856000D+01          -6.745900D-02
1.021000D+01          -1.580780D-01
3.838000D+00          -1.218310D-01
7.466000D-01           5.490030D-01
2.248000D-01           5.788150D-01
S   1   1.00
2.248000D-01           1.000000D+00
S   1   1.00
0.0612400              1.0000000
P   4   1.00
1.355000D+01           3.991900D-02
2.917000D+00           2.171690D-01
7.973000D-01           5.103190D-01
2.185000D-01           4.622140D-01
P   1   1.00
2.185000D-01           1.000000D+00
P   1   1.00
0.0561100              1.0000000
D   1   1.00
8.170000D-01           1.0000000
D   1   1.00
0.2300000              1.0000000
****
O     0
S   9   1.00
1.172000D+04           7.100000D-04
1.759000D+03           5.470000D-03
4.008000D+02           2.783700D-02
1.137000D+02           1.048000D-01
3.703000D+01           2.830620D-01
1.327000D+01           4.487190D-01
5.025000D+00           2.709520D-01
1.013000D+00           1.545800D-02
3.023000D-01          -2.585000D-03
S   9   1.00
1.172000D+04          -1.600000D-04
1.759000D+03          -1.263000D-03
4.008000D+02          -6.267000D-03
1.137000D+02          -2.571600D-02
3.703000D+01          -7.092400D-02
1.327000D+01          -1.654110D-01
5.025000D+00          -1.169550D-01
1.013000D+00           5.573680D-01
3.023000D-01           5.727590D-01
S   1   1.00
3.023000D-01           1.000000D+00
S   1   1.00
0.0789600              1.0000000
P   4   1.00
1.770000D+01           4.301800D-02
3.854000D+00           2.289130D-01
1.046000D+00           5.087280D-01
2.753000D-01           4.605310D-01
P   1   1.00
2.753000D-01           1.000000D+00
P   1   1.00
0.0685600              1.0000000
D   1   1.00
1.185000D+00           1.0000000
D   1   1.00
0.3320000              1.0000000
****
Fe     0
S   20   1.00
4.316265D+06           8.048803D-06
6.463424D+05           6.258306D-05
1.470897D+05           3.290239D-04
4.166152D+04           1.387355D-03
1.359077D+04           5.023256D-03
4.905750D+03           1.610140D-02
1.912746D+03           4.590034D-02
7.926043D+02           1.136154D-01
3.448065D+02           2.283869D-01
1.558999D+02           3.221159D-01
7.223091D+01           2.383661D-01
3.272506D+01           7.404667D-02
1.566762D+01           9.214197D-02
7.503483D+00           9.339790D-02
3.312223D+00           1.573965D-02
1.558471D+00          -4.186682D-04
6.839140D-01           5.376318D-05
1.467570D-01          -3.816654D-05
7.058300D-02           4.319603D-05
3.144900D-02          -3.401019D-06
S   20   1.00
4.316265D+06          -4.155954D-06
6.463424D+05          -3.231401D-05
1.470897D+05          -1.699525D-04
4.166152D+04          -7.171369D-04
1.359077D+04          -2.603625D-03
4.905750D+03          -8.399109D-03
1.912746D+03          -2.434109D-02
7.926043D+02          -6.251948D-02
3.448065D+02          -1.365929D-01
1.558999D+02          -2.312707D-01
7.223091D+01          -2.383734D-01
3.272506D+01           3.123837D-02
1.566762D+01           5.086818D-01
7.503483D+00           4.987695D-01
3.312223D+00           9.033552D-02
1.558471D+00          -6.005337D-03
6.839140D-01           2.312454D-04
1.467570D-01          -5.643680D-04
7.058300D-02           4.992260D-04
3.144900D-02          -1.015293D-04
S   20   1.00
4.316265D+06           9.532178D-07
6.463424D+05           7.414605D-06
1.470897D+05           3.898393D-05
4.166152D+04           1.647152D-04
1.359077D+04           5.985980D-04
4.905750D+03           1.942390D-03
1.912746D+03           5.687237D-03
7.926043D+02           1.501329D-02
3.448065D+02           3.452455D-02
1.558999D+02           6.495820D-02
7.223091D+01           7.716194D-02
3.272506D+01          -1.873411D-02
1.566762D+01          -3.009185D-01
7.503483D+00          -4.554661D-01
3.312223D+00           1.286463D-01
1.558471D+00           7.183316D-01
6.839140D-01           4.051743D-01
1.467570D-01           2.168227D-02
7.058300D-02          -8.343566D-03
3.144900D-02           3.658979D-03
S   20   1.00
4.316265D+06          -2.063008D-07
6.463424D+05          -1.604169D-06
1.470897D+05          -8.438437D-06
4.166152D+04          -3.563151D-05
1.359077D+04          -1.295998D-04
4.905750D+03          -4.201534D-04
1.912746D+03          -1.231954D-03
7.926043D+02          -3.248922D-03
3.448065D+02          -7.493717D-03
1.558999D+02          -1.410102D-02
7.223091D+01          -1.691600D-02
3.272506D+01           4.218996D-03
1.566762D+01           6.833810D-02
7.503483D+00           1.098201D-01
3.312223D+00          -4.009005D-02
1.558471D+00          -2.174739D-01
6.839140D-01          -2.465135D-01
1.467570D-01           2.731435D-01
7.058300D-02           5.748321D-01
3.144900D-02           3.012713D-01
S   20   1.00
4.316265D+06          -4.009367D-07
6.463424D+05          -3.189255D-06
1.470897D+05          -1.623079D-05
4.166152D+04          -7.157920D-05
1.359077D+04          -2.463958D-04
4.905750D+03          -8.544907D-04
1.912746D+03          -2.307593D-03
7.926043D+02          -6.728292D-03
3.448065D+02          -1.366165D-02
1.558999D+02          -3.062240D-02
7.223091D+01          -2.631137D-02
3.272506D+01          -9.760183D-03
1.566762D+01           1.801906D-01
7.503483D+00           1.529634D-01
3.312223D+00           5.505413D-02
1.558471D+00          -9.551364D-01
6.839140D-01           2.586813D-01
1.467570D-01           1.834049D+00
7.058300D-02          -9.333240D-01
3.144900D-02          -6.981605D-01
S   1   1.00
3.144900D-02           1.000000D+00
S   1   1.00
1.401000D-02           1.000000D+00
P   16   1.00
1.774569D+04           4.100000D-05
4.200721D+03           3.690000D-04
1.364429D+03           2.129000D-03
5.220806D+02           9.369000D-03
2.214595D+02           3.309700D-02
1.009096D+02           9.443100D-02
4.840115D+01           2.080770D-01
2.398536D+01           3.323330D-01
1.218250D+01           3.329870D-01
6.242298D+00           1.568430D-01
3.110944D+00           2.154900D-02
1.509958D+00          -2.095000D-03
7.108450D-01          -1.739000D-03
2.731900D-01          -3.000000D-04
1.042330D-01           2.900000D-05
3.829100D-02          -1.100000D-05
P   16   1.00
1.774569D+04          -1.500000D-05
4.200721D+03          -1.300000D-04
1.364429D+03          -7.510000D-04
5.220806D+02          -3.329000D-03
2.214595D+02          -1.191200D-02
1.009096D+02          -3.493300D-02
4.840115D+01          -7.998900D-02
2.398536D+01          -1.346360D-01
1.218250D+01          -1.385980D-01
6.242298D+00           3.027800D-02
3.110944D+00           3.332160D-01
1.509958D+00           4.561530D-01
7.108450D-01           2.850510D-01
2.731900D-01           4.614400D-02
1.042330D-01          -3.249000D-03
3.829100D-02           1.357000D-03
P   16   1.00
1.774569D+04           5.000000D-06
4.200721D+03           4.200000D-05
1.364429D+03           2.410000D-04
5.220806D+02           1.085000D-03
2.214595D+02           3.831000D-03
1.009096D+02           1.142300D-02
4.840115D+01           2.579200D-02
2.398536D+01           4.481800D-02
1.218250D+01           4.459800D-02
6.242298D+00          -1.117700D-02
3.110944D+00          -1.381340D-01
1.509958D+00          -1.882850D-01
7.108450D-01          -1.073990D-01
2.731900D-01           4.448630D-01
1.042330D-01           6.402390D-01
3.829100D-02           6.445700D-02
P   16   1.00
1.774569D+04           3.000000D-06
4.200721D+03           2.900000D-05
1.364429D+03           1.650000D-04
5.220806D+02           7.340000D-04
2.214595D+02           2.626000D-03
1.009096D+02           7.725000D-03
4.840115D+01           1.773300D-02
2.398536D+01           3.005500D-02
1.218250D+01           3.109400D-02
6.242298D+00          -1.004800D-02
3.110944D+00          -8.830600D-02
1.509958D+00          -1.298240D-01
7.108450D-01          -7.693700D-02
2.731900D-01           2.126610D-01
1.042330D-01           5.730610D-01
3.829100D-02           3.696510D-01
P   1   1.00
3.829100D-02           1.000000D+00
P   1   1.00
1.407000D-02           1.000000D+00
D   8   1.00
1.133440D+02           3.530000D-03
3.364140D+01           2.578400D-02
1.233100D+01           9.911900D-02
4.994780D+00           2.390730D-01
2.072800D+00           3.571990D-01
8.307530D-01           3.621880D-01
3.091780D-01           2.364610D-01
1.001300D-01           6.011800D-02
D   8   1.00
1.133440D+02          -3.890000D-03
3.364140D+01          -2.844200D-02
1.233100D+01          -1.124290D-01
4.994780D+00          -2.742570D-01
2.072800D+00          -3.155460D-01
8.307530D-01           5.710900D-02
3.091780D-01           5.636040D-01
1.001300D-01           3.846370D-01
D   1   1.00
1.001300D-01           1.000000D+00
D   1   1.00
3.243000D-02           1.000000D+00
F   2   1.00
3.224300D+00           4.222490D-01
7.758000D-01           7.714680D-01
F   1   1.00
2.749000D-01           1.000000D+00
****
$end


--------------------------------------------------------------
 ----------------------------------------------------------------
             Standard Nuclear Orientation (Angstroms)
    I     Atom           X                Y                Z
 ----------------------------------------------------------------
    1      C       3.1636632000    -1.4843723000    -1.3131580000
    2      C       4.4975791000    -1.8611548000    -1.1718231000
    3      C       5.3908479000    -1.8313608000    -2.2710096000
    4      C       4.9050336000    -1.4382075000    -3.5284785000
    5      C       3.5649382000    -1.0700639000    -3.6971866000
    6      C       2.6802944000    -1.0528872000    -2.6007519000
    7      H       4.8368525000    -2.1036430000    -0.1630257000
    8      O       1.4292084000    -0.6330363000    -2.6486288000
    9      C       6.8531577000    -2.0124750000    -2.0787977000
   10      O       7.6910582000    -1.5679471000    -2.8793147000
   11      N       7.2421659000    -2.6659945000    -0.9308089000
   12      H       6.4815921000    -2.9895044000    -0.3438701000
   13      C       8.4248878000    -2.2478228000    -0.1811096000
   14      H       8.9021750000    -3.1309177000     0.2715436000
   15      H       9.1331993000    -1.8157221000    -0.9026967000
   16      C       8.0402984000    -1.2288642000     0.9032446000
   17      H       8.8814309000    -1.1017680000     1.6071855000
   18      H       7.2000201000    -1.6462170000     1.4858616000
   19      C       7.6406063000     0.1401719000     0.3244879000
   20      H       7.0465206000    -0.0004256000    -0.5921594000
   21      H       8.5579857000     0.6739571000     0.0185882000
   22      N       6.8600628000     1.0128565000     1.2016026000
   23      H       7.2908894000     1.0416000000     2.1290207000
   24      C       4.6601239000     1.7008108000     2.1088908000
   25      H       3.6088600000     1.3716136000     2.1842237000
   26      H       5.0445865000     1.7458973000     3.1439130000
   27      C       5.4505020000     0.6390668000     1.3347236000
   28      H       5.2975753000    -0.3481238000     1.8207256000
   29      H       5.0392579000     0.5344139000     0.3167635000
   30      C       4.7367566000     3.0998743000     1.4849838000
   31      H       4.3668356000     3.8546959000     2.1999720000
   32      H       5.7954620000     3.3308793000     1.2883741000
   33      C       3.9647177000     3.2550340000     0.1690479000
   34      H       4.1308451000     2.3893995000    -0.4850111000
   35      H       4.3309881000     4.1482450000    -0.3634164000
   36      N       2.5253456000     3.3991610000     0.3466469000
   37      H       2.1876033000     4.3164935000     0.6165928000
   38      C       1.5908155000     2.5062536000    -0.0793055000
   39      O       1.9746518000     1.3681308000    -0.4986830000
   40      C       0.2134235000     2.9226125000    -0.0206933000
   41      H      -0.0256612000     3.8642064000     0.4752249000
   42      C      -2.2494335000     2.6479109000    -0.3935785000
   43      H      -2.6301985000     2.0556646000     0.4564451000
   44      H      -2.2951705000     3.7121123000    -0.1311634000
   45      C      -3.1304354000     2.4074879000    -1.6092570000
   46      O      -3.4026978000     3.3138808000    -2.4065239000
   47      N      -3.5787679000     1.1363852000    -1.7416470000
   48      C      -4.2853264000     0.6575371000    -2.9209235000
   49      H      -3.2177284000     0.4367416000    -1.0967852000
   50      C      -5.7101924000     0.1926140000    -2.6135923000
   51      H      -3.7090889000    -0.1722116000    -3.3641629000
   52      H      -4.2963872000     1.4877445000    -3.6414961000
   53      C      -6.6264314000     1.3112650000    -2.1175693000
   54      H      -6.1332538000    -0.2473586000    -3.5354161000
   55      H      -5.6705237000    -0.6174990000    -1.8672085000
   56      C      -8.0372046000     0.8141142000    -1.7592848000
   57      H      -6.7114329000     2.0902592000    -2.8972131000
   58      H      -6.1671418000     1.8007452000    -1.2414648000
   59      H      -8.6894785000     1.6842646000    -1.5649792000
   60      H      -8.4601426000     0.2947729000    -2.6384393000
   61      C      -5.3850164000    -1.7789975000     0.9012641000
   62      C      -3.9581042000    -1.3936268000     1.0500884000
   63      O      -5.8503180000    -2.1759709000    -0.1878950000
   64      C      -3.4805517000    -0.6402469000     2.1354649000
   65      C      -3.0584165000    -1.7512640000     0.0143447000
   66      C      -2.1369621000    -0.2513337000     2.1998047000
   67      C      -1.7152953000    -1.3700891000     0.0537451000
   68      C      -1.2364943000    -0.5944994000     1.1764770000
   69      H      -1.7758518000     0.3582708000     3.0325003000
   70      O      -0.8264447000    -1.6422427000    -0.8964932000
   71      C      -0.8055339000     2.1955454000    -0.6108915000
   72      O      -0.6575756000     1.1192270000    -1.3057590000
   73      H       3.1936394000    -0.7503593000    -4.6752750000
   74      O       2.2958209000    -1.4444500000    -0.3079059000
   75      H      -3.4303796000    -2.3214130000    -0.8391500000
   76      O       0.0282849000    -0.2253670000     1.1474867000
   77      Fe      0.7022205000    -0.3438250000    -0.7740998000
   78      N      -8.1537492000    -0.0906538000    -0.6123977000
   79      H      -7.5492620000    -0.9040962000    -0.7586151000
   80      N      -6.1776184000    -1.6823043000     2.0052965000
   81      H      -5.7633613000    -1.3434016000     2.8647090000
   82      C      -7.6299696000    -1.7210423000     1.9388693000
   83      H      -7.8989355000    -2.3227723000     1.0606838000
   84      H      -8.0095547000    -2.2438270000     2.8301729000
   85      C      -8.2610643000    -0.3229303000     1.8538072000
   86      H      -9.3565749000    -0.4453816000     1.7960963000
   87      H      -8.0406811000     0.2265890000     2.7861238000
   88      C      -7.7868201000     0.5184166000     0.6666895000
   89      H      -8.2749793000     1.5068014000     0.7231409000
   90      H      -6.6976866000     0.7078070000     0.7677222000
   91      H      -4.1525059000    -0.3044749000     2.9283021000
   92      H       5.5995769000    -1.3966405000    -4.3693349000
 ----------------------------------------------------------------
 Nuclear Repulsion Energy =        7440.02508554 hartrees
 There are      194 alpha and      189 beta electrons
 Requested basis set is non-standard
 There are 666 shells and 1550 basis functions

 Total QAlloc Memory Limit  30000 MB
 Mega-Array Size       188 MB
 MEM_STATIC part       192 MB

 Using C-PCM dielectric factor f(eps) = (eps-1)/eps = 0.987243
No default van der Waals radius is available for Z = 26
	Found R = 2.4400 A in the $van_der_waals section
 Discretize the solute cavity surface with Lebedev spheres
	Using 110 Lebedev grid points for each H atom
	Using 194 Lebedev grid points for other atoms
	Atomic van der Waals radii (Bondi set) will be scaled by 1.20
 Using smooth SwiG surface discretization
 Remove points where switching function is < 1.0e-08
 Keep 5401 surface tesserae and discard 8835 interior tesserae
 Molecular Surface Area = 669.428 Angst**2

 A cutoff of  1.0D-12 yielded 164487 shell pairs
 There are    838191 function pairs (    948224 Cartesian)
 Smallest overlap matrix eigenvalue = 3.44E-07
 Linear dependence detected in AO basis
 Tighter screening thresholds may be required for diffuse basis sets
 Use S2THRESH > 14 and THRESH = 14 in case of SCF convergence issues
 Number of orthogonalized atomic orbitals = 1544
 Maximum deviation from orthogonality = 2.222E-10

 Scale SEOQF with 1.000000e-02/1.000000e-01/1.000000e-01

 Standard Electronic Orientation quadrupole field applied
 Nucleus-field energy     =    -0.0000000010 hartrees
 ================ Generating on-the-fly SAD Guess ================
 Attempting to make child job directory: /data/scratch/C_FePBstar_enol_L_ctL_3sextet_camb3lyo_augccpVDZ_pcmH2O_tddft10020240227112812//Frg1/
 Attempting to make child job directory: /data/scratch/C_FePBstar_enol_L_ctL_3sextet_camb3lyo_augccpVDZ_pcmH2O_tddft10020240227112812//Frg2/
 Attempting to make child job directory: /data/scratch/C_FePBstar_enol_L_ctL_3sextet_camb3lyo_augccpVDZ_pcmH2O_tddft10020240227112812//Frg3/
 Attempting to make child job directory: /data/scratch/C_FePBstar_enol_L_ctL_3sextet_camb3lyo_augccpVDZ_pcmH2O_tddft10020240227112812//Frg4/
 Attempting to make child job directory: /data/scratch/C_FePBstar_enol_L_ctL_3sextet_camb3lyo_augccpVDZ_pcmH2O_tddft10020240227112812//Frg5/
 Creating input file /data/scratch/C_FePBstar_enol_L_ctL_3sextet_camb3lyo_augccpVDZ_pcmH2O_tddft10020240227112812/Frg1.input
 using default PutDataFrgm: nothing
 calling putenv with: QCSCRATCH=/data/scratch/C_FePBstar_enol_L_ctL_3sextet_camb3lyo_augccpVDZ_pcmH2O_tddft10020240227112812/ 
 Spawning Job For Fragment 0
 Done Job For Fragment 0
 calling putenv with: QCSCRATCH=/data/scratch 
 calling putenv with: QCTHREADS=20 
 Creating input file /data/scratch/C_FePBstar_enol_L_ctL_3sextet_camb3lyo_augccpVDZ_pcmH2O_tddft10020240227112812/Frg2.input
 using default PutDataFrgm: nothing
 calling putenv with: QCSCRATCH=/data/scratch/C_FePBstar_enol_L_ctL_3sextet_camb3lyo_augccpVDZ_pcmH2O_tddft10020240227112812/ 
 Spawning Job For Fragment 1
 Done Job For Fragment 1
 calling putenv with: QCSCRATCH=/data/scratch 
 calling putenv with: QCTHREADS=20 
 Creating input file /data/scratch/C_FePBstar_enol_L_ctL_3sextet_camb3lyo_augccpVDZ_pcmH2O_tddft10020240227112812/Frg3.input
 using default PutDataFrgm: nothing
 calling putenv with: QCSCRATCH=/data/scratch/C_FePBstar_enol_L_ctL_3sextet_camb3lyo_augccpVDZ_pcmH2O_tddft10020240227112812/ 
 Spawning Job For Fragment 2
 Done Job For Fragment 2
 calling putenv with: QCSCRATCH=/data/scratch 
 calling putenv with: QCTHREADS=20 
 Creating input file /data/scratch/C_FePBstar_enol_L_ctL_3sextet_camb3lyo_augccpVDZ_pcmH2O_tddft10020240227112812/Frg4.input
 using default PutDataFrgm: nothing
 calling putenv with: QCSCRATCH=/data/scratch/C_FePBstar_enol_L_ctL_3sextet_camb3lyo_augccpVDZ_pcmH2O_tddft10020240227112812/ 
 Spawning Job For Fragment 3
 Done Job For Fragment 3
 calling putenv with: QCSCRATCH=/data/scratch 
 calling putenv with: QCTHREADS=20 
 Creating input file /data/scratch/C_FePBstar_enol_L_ctL_3sextet_camb3lyo_augccpVDZ_pcmH2O_tddft10020240227112812/Frg5.input
 using default PutDataFrgm: nothing
 calling putenv with: QCSCRATCH=/data/scratch/C_FePBstar_enol_L_ctL_3sextet_camb3lyo_augccpVDZ_pcmH2O_tddft10020240227112812/ 
 Spawning Job For Fragment 4
 Done Job For Fragment 4
 calling putenv with: QCSCRATCH=/data/scratch 
 calling putenv with: QCTHREADS=20 
 Time for running child jobs:  CPU 0.03 s  wall 131.74 s
 ============= Method Specific SAD Guess Constructed =============
 Guess from on-the-fly superposition of atomic densities
 Warning: Energy on first SCF cycle will be non-variational

 -----------------------------------------------------------------------
  General SCF calculation program by
  Eric Jon Sundstrom, Paul Horn, Yuezhi Mao, Dmitri Zuev, Alec White,
  David Stuck, Shaama M.S., Shane Yost, Joonho Lee, David Small,
  Daniel Levine, Susi Lehtola, Hugh Burton, Evgeny Epifanovsky,
  Bang C. Huynh
 -----------------------------------------------------------------------
 Exchange:     0.1900 Hartree-Fock + 0.3500 B88 + 0.4600 muB88 + LR-HF
 Correlation:  0.1900 VWN5 + 0.8100 LYP
 Using SG-1 standard quadrature grid
 using 20 threads for integral computing
 -------------------------------------------------------
 OpenMP Integral computing Module                
 Release: version 1.0, May 2013, Q-Chem Inc. Pittsburgh 
 -------------------------------------------------------
 C-PCM solvent model [f = (eps-1)/eps], solve by matrix inversion
 A unrestricted SCF calculation will be
 performed using DIIS
 SCF converges when DIIS error is below 1.0e-08
 ---------------------------------------
  Cycle       Energy         DIIS error
 ---------------------------------------
    1   -3580.5869074473      9.19e-03  
    2   -3551.2957131866      1.01e-03  
    3   -3550.4440430604      1.66e-03  
    4   -3552.2792322837      5.42e-04  
    5   -3552.4816297434      1.35e-04  
    6   -3552.4981546142      8.09e-05  
    7   -3552.5055049863      1.98e-05  
    8   -3552.5063789297      1.26e-05  
    9   -3552.5066615128      5.54e-06  
   10   -3552.5067289944      2.17e-06  
   11   -3552.5067444921      1.05e-06  
   12   -3552.5067502480      5.33e-07  
   13   -3552.5067520580      2.99e-07  
   14   -3552.5067527402      1.65e-07  
   15   -3552.5067529121      1.05e-07  
   16   -3552.5067529820      5.70e-08  
   17   -3552.5067530084      3.90e-08  
   18   -3552.5067530151      2.49e-08  
   19   -3552.5067530170      1.11e-08  
   20   -3552.5067530117      7.11e-09  Convergence criterion met
 ---------------------------------------
 SCF time:   CPU 561562.90s  wall 32599.00s 
<S^2> =          8.757668442

************** Final PCM Free Energy Summary **************
 G_electrostatic  =      -0.29502898 hartree =    -185.13347710 kcal/mol
 G_cavitation     =       0.00000000 hartree =       0.00000000 kcal/mol
 G_dispersion     =       0.00000000 hartree =       0.00000000 kcal/mol
 G_repulsion      =       0.00000000 hartree =       0.00000000 kcal/mol
 --------------------------------------------------
 Non-electrostatic Free Energy =       0.00000000 hartree =       0.00000000 kcal/mol
 Total                         =      -0.29502898 hartree =    -185.13347710 kcal/mol
 --------------------------------------------------
 SCF Energy (H0 + V/2)                       =   -3552.50675301 
 Solute Internal Energy (H0)                 =   -3552.21172403 
 Total Free Energy (H0 + V/2 + non-elec)     =   -3552.50675301 hartree
                                             = -2229231.63330629 kcal/mol
***********************************************************

 SCF   energy in the final basis set =    -3552.5067530117
 Total energy in the final basis set =    -3552.5067530117
 
 MAX_CIS_SUBSPACE fits in available memory
 Direct TDDFT/TDA calculation will be performed
 Exchange:     0.1900 Hartree-Fock + 0.3500 B88 + 0.4600 muB88 + LR-HF
 Correlation:  0.1900 VWN5 + 0.8100 LYP
 Using SG-1 standard quadrature grid
 Adding PCM contribution to the XC response (LR-PCM)
 CIS energy converged when residual is below 10e- 6
 NRoots was altered as:100 -->101
 ---------------------------------------------------
 Iter    Rts Conv    Rts Left    Ttl Dev     Max Dev
 ---------------------------------------------------
   1         0         101      0.004584    0.000188
   2         0         101      0.002871    0.000082
   3         0         101      0.003001    0.000105
   4         0         101      0.003517    0.000102
   5         7          94      0.002510    0.000079
   6        14          87      0.001493    0.000065
   7        21          80      0.000813    0.000034
   8        38          63      0.000359    0.000020
   9        64          37      0.000168    0.000033
  10        86          15      0.000062    0.000011
  11       100           1      0.000027    0.000004
  12       100           1      0.000024    0.000001
  13       101           0      0.000023    0.000001    Roots Converged
 ---------------------------------------------------
 
 ---------------------------------------------------
         TDDFT/TDA Excitation Energies              
 ---------------------------------------------------

 Excited state   1: excitation energy (eV) =    2.1901
 Total energy for state  1:                 -3552.42626669 au
    <S**2>     :  8.8116
    Trans. Mom.:  0.3504 X  -0.0305 Y  -0.1638 Z
    Strength   :     0.0080772231
    D(  188) --> S(    2) amplitude =  0.3538 beta
    D(  188) --> S(    3) amplitude = -0.1954 beta
    D(  189) --> S(    1) amplitude = -0.2957 beta
    D(  189) --> S(    2) amplitude =  0.7393 beta
    D(  189) --> S(    3) amplitude = -0.3737 beta

 Excited state   2: excitation energy (eV) =    2.2463
 Total energy for state  2:                 -3552.42420248 au
    <S**2>     :  8.8242
    Trans. Mom.:  1.2099 X  -0.1193 Y  -0.4697 Z
    Strength   :     0.0934863733
    D(  188) --> S(    1) amplitude =  0.7315 beta
    D(  188) --> S(    2) amplitude = -0.4222 beta
    D(  189) --> S(    1) amplitude =  0.3194 beta
    D(  189) --> S(    2) amplitude =  0.3196 beta

 Excited state   3: excitation energy (eV) =    2.2875
 Total energy for state  3:                 -3552.42268847 au
    <S**2>     :  8.8204
    Trans. Mom.: -0.1839 X  -0.1102 Y   0.0811 Z
    Strength   :     0.0029429196
    D(  188) --> S(    1) amplitude = -0.3082 beta
    D(  188) --> S(    3) amplitude = -0.5425 beta
    D(  189) --> S(    1) amplitude =  0.6838 beta
    D(  189) --> S(    3) amplitude = -0.2711 beta

 Excited state   4: excitation energy (eV) =    2.3070
 Total energy for state  4:                 -3552.42197226 au
    <S**2>     :  8.8411
    Trans. Mom.:  0.3025 X  -0.0157 Y  -0.1010 Z
    Strength   :     0.0057636470
    D(  188) --> S(    1) amplitude =  0.5428 beta
    D(  188) --> S(    2) amplitude =  0.5397 beta
    D(  188) --> S(    3) amplitude = -0.4103 beta
    D(  189) --> S(    2) amplitude = -0.4154 beta

 Excited state   5: excitation energy (eV) =    2.3366
 Total energy for state  5:                 -3552.42088382 au
    <S**2>     :  8.7872
    Trans. Mom.:  1.0591 X  -0.1222 Y  -0.4420 Z
    Strength   :     0.0762565934
    D(  188) --> S(    2) amplitude =  0.2199 beta
    D(  188) --> S(    3) amplitude = -0.1782 beta
    D(  189) --> S(    1) amplitude =  0.2009 beta
    D(  189) --> S(    2) amplitude =  0.3523 beta
    D(  189) --> S(    3) amplitude =  0.8380 beta

 Excited state   6: excitation energy (eV) =    2.6461
 Total energy for state  6:                 -3552.40951142 au
    <S**2>     :  8.8249
    Trans. Mom.: -0.0755 X  -0.4385 Y   0.0286 Z
    Strength   :     0.0128867359
    D(  188) --> S(    2) amplitude =  0.5228 beta
    D(  188) --> S(    3) amplitude =  0.6138 beta
    D(  189) --> S(    1) amplitude =  0.4530 beta

 Excited state   7: excitation energy (eV) =    2.9972
 Total energy for state  7:                 -3552.39660640 au
    <S**2>     : 10.5277
    Trans. Mom.:  0.2138 X  -0.0782 Y  -0.0178 Z
    Strength   :     0.0038278197
    S(    5) --> V(    1) amplitude =  0.2885 alpha
    S(    5) --> V(    2) amplitude =  0.4790 alpha
    S(    5) --> V(    3) amplitude =  0.2120 alpha
    S(    5) --> V(    6) amplitude = -0.2585 alpha
    D(  188) --> S(    4) amplitude =  0.2251 beta
    D(  188) --> V(    5) amplitude =  0.2473 beta
    D(  189) --> S(    4) amplitude =  0.2962 beta
    D(  189) --> S(    5) amplitude = -0.1634 beta
    D(  189) --> V(    1) amplitude = -0.1575 beta
    D(  189) --> V(    5) amplitude =  0.2783 beta

 Excited state   8: excitation energy (eV) =    3.0197
 Total energy for state  8:                 -3552.39578159 au
    <S**2>     : 10.5002
    Trans. Mom.:  0.1495 X   0.0750 Y  -0.0277 Z
    Strength   :     0.0021260039
    S(    4) --> V(    3) amplitude =  0.5812 alpha
    S(    4) --> V(    6) amplitude =  0.1864 alpha
    D(  188) --> S(    5) amplitude =  0.2393 beta
    D(  188) --> V(    1) amplitude =  0.2711 beta
    D(  188) --> V(    2) amplitude =  0.1653 beta
    D(  188) --> V(    4) amplitude =  0.1748 beta
    D(  188) --> V(    5) amplitude =  0.1606 beta
    D(  189) --> S(    5) amplitude = -0.1793 beta
    D(  189) --> V(    1) amplitude = -0.2063 beta
    D(  189) --> V(    5) amplitude = -0.1729 beta

 Excited state   9: excitation energy (eV) =    3.3168
 Total energy for state  9:                 -3552.38486141 au
    <S**2>     :  9.6822
    Trans. Mom.: -0.2469 X  -0.1275 Y  -0.0366 Z
    Strength   :     0.0063848979
    S(    3) --> V(   11) amplitude =  0.1539 alpha
    S(    3) --> V(   12) amplitude =  0.1765 alpha
    S(    3) --> V(   14) amplitude =  0.1834 alpha
    D(  187) --> S(    1) amplitude = -0.2814 beta
    D(  187) --> S(    2) amplitude =  0.5228 beta
    D(  187) --> S(    3) amplitude = -0.4797 beta
    D(  187) --> S(    4) amplitude = -0.2701 beta
    D(  187) --> V(   18) amplitude =  0.1783 beta

 Excited state  10: excitation energy (eV) =    3.3738
 Total energy for state 10:                 -3552.38276693 au
    <S**2>     :  8.9510
    Trans. Mom.: -0.1039 X  -0.0703 Y  -0.0330 Z
    Strength   :     0.0013909539
    S(    4) --> V(    3) amplitude = -0.1587 alpha
    D(  188) --> S(    4) amplitude =  0.3100 beta
    D(  188) --> S(    5) amplitude =  0.2383 beta
    D(  188) --> V(    1) amplitude =  0.2620 beta
    D(  188) --> V(    5) amplitude = -0.2104 beta
    D(  188) --> V(    9) amplitude = -0.2745 beta
    D(  189) --> S(    4) amplitude = -0.3087 beta
    D(  189) --> S(    5) amplitude = -0.2723 beta
    D(  189) --> V(    1) amplitude = -0.2976 beta
    D(  189) --> V(    5) amplitude =  0.2211 beta
    D(  189) --> V(    9) amplitude =  0.3225 beta

 Excited state  11: excitation energy (eV) =    3.3980
 Total energy for state 11:                 -3552.38187874 au
    <S**2>     :  8.8373
    Trans. Mom.: -0.0632 X   0.0942 Y  -0.0203 Z
    Strength   :     0.0011056646
    D(  188) --> S(    4) amplitude =  0.4169 beta
    D(  188) --> S(    5) amplitude =  0.2291 beta
    D(  188) --> V(    1) amplitude =  0.2431 beta
    D(  188) --> V(    5) amplitude = -0.1721 beta
    D(  188) --> V(   18) amplitude =  0.1575 beta
    D(  189) --> S(    4) amplitude =  0.4831 beta
    D(  189) --> S(    5) amplitude =  0.2311 beta
    D(  189) --> V(    1) amplitude =  0.2425 beta
    D(  189) --> V(    4) amplitude = -0.1552 beta
    D(  189) --> V(    5) amplitude = -0.1753 beta
    D(  189) --> V(   18) amplitude =  0.1825 beta

 Excited state  12: excitation energy (eV) =    3.4839
 Total energy for state 12:                 -3552.37872303 au
    <S**2>     :  8.7970
    Trans. Mom.:  0.2691 X  -0.1554 Y  -0.0896 Z
    Strength   :     0.0089270712
    D(  187) --> S(    1) amplitude =  0.8295 beta
    D(  187) --> S(    2) amplitude =  0.3927 beta

 Excited state  13: excitation energy (eV) =    3.5274
 Total energy for state 13:                 -3552.37712331 au
    <S**2>     :  8.8610
    Trans. Mom.: -0.3856 X   0.2241 Y   0.0216 Z
    Strength   :     0.0172292386
    D(  187) --> S(    2) amplitude =  0.3976 beta
    D(  187) --> S(    3) amplitude =  0.3441 beta
    D(  188) --> S(    5) amplitude = -0.1587 beta
    D(  188) --> V(    1) amplitude = -0.1784 beta
    D(  188) --> V(    9) amplitude =  0.3140 beta
    D(  189) --> S(    4) amplitude =  0.1690 beta
    D(  189) --> V(    1) amplitude = -0.1547 beta
    D(  189) --> V(    4) amplitude = -0.1946 beta
    D(  189) --> V(    9) amplitude =  0.4302 beta

 Excited state  14: excitation energy (eV) =    3.5371
 Total energy for state 14:                 -3552.37676859 au
    <S**2>     :  8.8559
    Trans. Mom.:  0.1379 X   0.2456 Y   0.0403 Z
    Strength   :     0.0070162515
    D(  187) --> S(    1) amplitude = -0.2327 beta
    D(  187) --> S(    2) amplitude =  0.5052 beta
    D(  187) --> S(    3) amplitude =  0.5070 beta
    D(  189) --> S(    4) amplitude = -0.1558 beta
    D(  189) --> V(    4) amplitude =  0.1589 beta
    D(  189) --> V(    9) amplitude = -0.3492 beta

 Excited state  15: excitation energy (eV) =    3.6568
 Total energy for state 15:                 -3552.37236953 au
    <S**2>     :  8.9588
    Trans. Mom.:  0.4922 X  -0.0082 Y  -0.1014 Z
    Strength   :     0.0226334059
    S(    4) --> V(    3) amplitude =  0.1540 alpha
    D(  187) --> S(    1) amplitude =  0.1702 beta
    D(  188) --> S(    4) amplitude =  0.4289 beta
    D(  188) --> V(    4) amplitude = -0.2790 beta
    D(  188) --> V(    6) amplitude = -0.1700 beta
    D(  188) --> V(    9) amplitude =  0.4837 beta
    D(  189) --> S(    4) amplitude = -0.2905 beta
    D(  189) --> V(    9) amplitude = -0.1884 beta

 Excited state  16: excitation energy (eV) =    3.6942
 Total energy for state 16:                 -3552.37099536 au
    <S**2>     : 10.1385
    Trans. Mom.:  0.0341 X   0.1127 Y   0.0737 Z
    Strength   :     0.0017465745
    S(    3) --> V(   12) amplitude =  0.1512 alpha
    S(    3) --> V(   14) amplitude =  0.1566 alpha
    S(    5) --> V(   22) amplitude =  0.1776 alpha
    S(    5) --> V(   23) amplitude =  0.3313 alpha
    S(    5) --> V(   25) amplitude = -0.1920 alpha
    D(  187) --> S(    2) amplitude = -0.1589 beta
    D(  187) --> S(    3) amplitude =  0.3283 beta
    D(  187) --> S(    4) amplitude = -0.2238 beta
    D(  189) --> V(   25) amplitude =  0.1837 beta

 Excited state  17: excitation energy (eV) =    3.6972
 Total energy for state 17:                 -3552.37088496 au
    <S**2>     : 10.1413
    Trans. Mom.:  0.1772 X   0.0560 Y  -0.1172 Z
    Strength   :     0.0043733902
    S(    4) --> V(   21) amplitude =  0.1582 alpha
    S(    4) --> V(   22) amplitude = -0.1709 alpha
    S(    5) --> V(   23) amplitude = -0.2740 alpha
    D(  187) --> S(    2) amplitude = -0.1525 beta
    D(  187) --> S(    3) amplitude =  0.2932 beta
    D(  187) --> S(    4) amplitude = -0.2071 beta
    D(  188) --> V(   22) amplitude =  0.1837 beta
    D(  189) --> V(   24) amplitude =  0.1822 beta
    D(  189) --> V(   25) amplitude = -0.1503 beta

 Excited state  18: excitation energy (eV) =    3.7071
 Total energy for state 18:                 -3552.37051797 au
    <S**2>     : 10.2692
    Trans. Mom.: -0.0597 X  -0.0745 Y  -0.0402 Z
    Strength   :     0.0009744504
    S(    4) --> V(   19) amplitude =  0.1670 alpha
    S(    4) --> V(   21) amplitude =  0.2349 alpha
    S(    4) --> V(   22) amplitude = -0.2181 alpha
    S(    4) --> V(   23) amplitude =  0.2326 alpha
    S(    4) --> V(   28) amplitude = -0.1617 alpha
    D(  187) --> S(    3) amplitude = -0.2674 beta
    D(  187) --> S(    4) amplitude =  0.1682 beta
    D(  188) --> V(    9) amplitude = -0.1505 beta
    D(  188) --> V(   24) amplitude = -0.2274 beta
    D(  189) --> V(   22) amplitude = -0.2139 beta

 Excited state  19: excitation energy (eV) =    3.9037
 Total energy for state 19:                 -3552.36329385 au
    <S**2>     :  9.1667
    Trans. Mom.:  0.2087 X  -0.1141 Y  -0.0502 Z
    Strength   :     0.0056531833
    D(  172) --> S(    1) amplitude =  0.1790 beta
    D(  185) --> S(    2) amplitude =  0.2165 beta
    D(  186) --> S(    1) amplitude =  0.7726 beta

 Excited state  20: excitation energy (eV) =    3.9499
 Total energy for state 20:                 -3552.36159545 au
    <S**2>     :  9.1334
    Trans. Mom.:  0.2706 X   0.0461 Y  -0.0368 Z
    Strength   :     0.0074206837
    D(  172) --> S(    2) amplitude =  0.1905 beta
    D(  185) --> S(    1) amplitude =  0.5261 beta
    D(  186) --> S(    2) amplitude =  0.5214 beta
    D(  186) --> S(    3) amplitude =  0.2087 beta

 Excited state  21: excitation energy (eV) =    4.0389
 Total energy for state 21:                 -3552.35832438 au
    <S**2>     :  9.0961
    Trans. Mom.: -0.8875 X   0.1101 Y   0.2742 Z
    Strength   :     0.0865743129
    D(  172) --> S(    2) amplitude =  0.2622 beta
    D(  174) --> S(    2) amplitude = -0.1582 beta
    D(  179) --> S(    2) amplitude =  0.2046 beta
    D(  182) --> S(    2) amplitude =  0.2098 beta
    D(  185) --> S(    1) amplitude = -0.4189 beta
    D(  186) --> S(    2) amplitude =  0.5499 beta
    D(  186) --> S(    3) amplitude = -0.2876 beta

 Excited state  22: excitation energy (eV) =    4.0676
 Total energy for state 22:                 -3552.35727040 au
    <S**2>     :  8.8512
    Trans. Mom.: -0.2086 X  -0.1127 Y   0.0856 Z
    Strength   :     0.0063325321
    D(  174) --> S(    2) amplitude =  0.1761 beta
    D(  179) --> S(    2) amplitude = -0.3521 beta
    D(  180) --> S(    2) amplitude = -0.1904 beta
    D(  182) --> S(    1) amplitude = -0.1744 beta
    D(  182) --> S(    2) amplitude = -0.6087 beta
    D(  182) --> S(    3) amplitude =  0.1766 beta
    D(  185) --> S(    2) amplitude = -0.2828 beta
    D(  186) --> S(    2) amplitude =  0.2735 beta

 Excited state  23: excitation energy (eV) =    4.0747
 Total energy for state 23:                 -3552.35701214 au
    <S**2>     :  8.8422
    Trans. Mom.:  0.0596 X   0.0559 Y  -0.0932 Z
    Strength   :     0.0015351081
    D(  172) --> S(    1) amplitude =  0.1636 beta
    D(  172) --> S(    3) amplitude =  0.2821 beta
    D(  174) --> S(    3) amplitude = -0.1555 beta
    D(  178) --> S(    1) amplitude =  0.3407 beta
    D(  179) --> S(    1) amplitude =  0.2055 beta
    D(  179) --> S(    3) amplitude =  0.2075 beta
    D(  182) --> S(    3) amplitude =  0.2092 beta
    D(  185) --> S(    1) amplitude = -0.2192 beta
    D(  185) --> S(    2) amplitude = -0.2367 beta
    D(  186) --> S(    3) amplitude =  0.4863 beta

 Excited state  24: excitation energy (eV) =    4.1041
 Total energy for state 24:                 -3552.35593066 au
    <S**2>     :  8.8092
    Trans. Mom.:  0.3194 X   0.1182 Y   0.0187 Z
    Strength   :     0.0116948829
    D(  174) --> S(    1) amplitude =  0.2251 beta
    D(  179) --> S(    1) amplitude = -0.3676 beta
    D(  180) --> S(    1) amplitude = -0.1917 beta
    D(  182) --> S(    1) amplitude = -0.6458 beta
    D(  185) --> S(    2) amplitude =  0.2321 beta
    D(  186) --> S(    3) amplitude =  0.3379 beta

 Excited state  25: excitation energy (eV) =    4.1143
 Total energy for state 25:                 -3552.35555409 au
    <S**2>     :  8.9192
    Trans. Mom.: -0.2113 X  -0.1814 Y   0.0858 Z
    Strength   :     0.0085570975
    D(  174) --> S(    1) amplitude = -0.1583 beta
    D(  176) --> S(    1) amplitude = -0.2839 beta
    D(  178) --> S(    1) amplitude = -0.4695 beta
    D(  182) --> S(    1) amplitude =  0.2549 beta
    D(  182) --> S(    2) amplitude = -0.1795 beta
    D(  185) --> S(    1) amplitude = -0.1776 beta
    D(  185) --> S(    2) amplitude =  0.2694 beta
    D(  186) --> S(    3) amplitude =  0.2961 beta

 Excited state  26: excitation energy (eV) =    4.1410
 Total energy for state 26:                 -3552.35457271 au
    <S**2>     :  8.8598
    Trans. Mom.: -0.7211 X   0.0606 Y   0.0042 Z
    Strength   :     0.0531352742
    D(  172) --> S(    2) amplitude =  0.1655 beta
    D(  176) --> S(    1) amplitude = -0.1597 beta
    D(  176) --> S(    2) amplitude =  0.2950 beta
    D(  176) --> S(    3) amplitude = -0.1701 beta
    D(  178) --> S(    1) amplitude = -0.2308 beta
    D(  178) --> S(    2) amplitude =  0.4730 beta
    D(  178) --> S(    3) amplitude = -0.3452 beta
    D(  179) --> S(    2) amplitude =  0.1985 beta
    D(  185) --> S(    2) amplitude = -0.1954 beta

 Excited state  27: excitation energy (eV) =    4.1463
 Total energy for state 27:                 -3552.35437930 au
    <S**2>     :  8.8651
    Trans. Mom.:  0.1369 X   0.2400 Y  -0.0556 Z
    Strength   :     0.0080691716
    D(  173) --> S(    3) amplitude =  0.1743 beta
    D(  176) --> S(    3) amplitude = -0.1707 beta
    D(  178) --> S(    1) amplitude =  0.1838 beta
    D(  179) --> S(    3) amplitude =  0.2531 beta
    D(  180) --> S(    3) amplitude =  0.1542 beta
    D(  182) --> S(    3) amplitude =  0.5315 beta
    D(  185) --> S(    1) amplitude =  0.2142 beta
    D(  185) --> S(    2) amplitude =  0.3826 beta
    D(  185) --> S(    3) amplitude =  0.2538 beta
    D(  186) --> S(    1) amplitude = -0.1720 beta
    D(  186) --> S(    3) amplitude = -0.1784 beta

 Excited state  28: excitation energy (eV) =    4.2074
 Total energy for state 28:                 -3552.35213508 au
    <S**2>     :  9.0063
    Trans. Mom.:  0.4229 X  -0.0085 Y   0.0125 Z
    Strength   :     0.0184591467
    D(  171) --> S(    2) amplitude = -0.1529 beta
    D(  172) --> S(    1) amplitude = -0.1710 beta
    D(  178) --> S(    1) amplitude = -0.1759 beta
    D(  178) --> S(    2) amplitude = -0.2970 beta
    D(  182) --> S(    2) amplitude =  0.2573 beta
    D(  182) --> S(    3) amplitude =  0.1528 beta
    D(  185) --> S(    2) amplitude = -0.3083 beta
    D(  185) --> S(    3) amplitude =  0.5231 beta

 Excited state  29: excitation energy (eV) =    4.2112
 Total energy for state 29:                 -3552.35199309 au
    <S**2>     :  8.9249
    Trans. Mom.: -0.6620 X  -0.2248 Y  -0.1885 Z
    Strength   :     0.0540955588
    D(  175) --> S(    3) amplitude =  0.1670 beta
    D(  176) --> S(    3) amplitude =  0.3847 beta
    D(  178) --> S(    3) amplitude =  0.5305 beta
    D(  179) --> S(    3) amplitude =  0.2007 beta
    D(  186) --> S(    3) amplitude = -0.1781 beta

 Excited state  30: excitation energy (eV) =    4.2395
 Total energy for state 30:                 -3552.35095409 au
    <S**2>     :  8.9904
    Trans. Mom.:  0.8474 X  -0.3276 Y   0.1487 Z
    Strength   :     0.0880333349
    S(    5) --> V(    2) amplitude =  0.1924 alpha
    D(  174) --> S(    3) amplitude =  0.1534 beta
    D(  176) --> S(    2) amplitude =  0.1615 beta
    D(  178) --> S(    1) amplitude =  0.1897 beta
    D(  178) --> S(    2) amplitude =  0.2536 beta
    D(  182) --> S(    2) amplitude = -0.1747 beta
    D(  182) --> S(    3) amplitude = -0.2990 beta
    D(  185) --> S(    3) amplitude =  0.3752 beta
    D(  189) --> V(    5) amplitude = -0.1507 beta

 Excited state  31: excitation energy (eV) =    4.2606
 Total energy for state 31:                 -3552.35017819 au
    <S**2>     :  8.9486
    Trans. Mom.: -1.7543 X   0.0264 Y  -0.0974 Z
    Strength   :     0.3223089191
    S(    4) --> V(    3) amplitude = -0.2346 alpha
    S(    5) --> V(    2) amplitude = -0.1679 alpha
    D(  171) --> S(    3) amplitude =  0.1871 beta
    D(  182) --> S(    3) amplitude = -0.2027 beta
    D(  185) --> S(    3) amplitude =  0.3721 beta
    D(  186) --> S(    2) amplitude =  0.2289 beta
    D(  186) --> S(    3) amplitude =  0.2721 beta
    D(  188) --> V(    5) amplitude =  0.2030 beta
    D(  189) --> S(    5) amplitude = -0.1507 beta
    D(  189) --> V(    9) amplitude = -0.1668 beta

 Excited state  32: excitation energy (eV) =    4.2812
 Total energy for state 32:                 -3552.34942219 au
    <S**2>     :  9.1856
    Trans. Mom.: -0.1953 X   0.4249 Y  -0.0980 Z
    Strength   :     0.0239414982
    S(    1) --> V(    3) amplitude =  0.1716 alpha
    S(    5) --> V(    2) amplitude = -0.1669 alpha
    D(  172) --> S(    1) amplitude = -0.3128 beta
    D(  173) --> S(    1) amplitude =  0.2290 beta
    D(  185) --> S(    2) amplitude =  0.3723 beta
    D(  186) --> S(    3) amplitude =  0.1545 beta
    D(  189) --> V(    5) amplitude =  0.2356 beta

 Excited state  33: excitation energy (eV) =    4.3359
 Total energy for state 33:                 -3552.34741023 au
    <S**2>     :  9.2130
    Trans. Mom.:  0.3243 X   0.3503 Y  -0.1977 Z
    Strength   :     0.0283614603
    S(    1) --> V(    3) amplitude = -0.1573 alpha
    S(    2) --> V(    2) amplitude = -0.2335 alpha
    S(    4) --> V(    3) amplitude =  0.2352 alpha
    S(    5) --> V(    2) amplitude = -0.1740 alpha
    D(  171) --> S(    1) amplitude =  0.1894 beta
    D(  171) --> S(    3) amplitude =  0.1793 beta
    D(  172) --> S(    1) amplitude =  0.1642 beta
    D(  173) --> S(    2) amplitude =  0.1765 beta
    D(  176) --> S(    2) amplitude = -0.1523 beta
    D(  186) --> S(    1) amplitude =  0.1797 beta
    D(  188) --> V(    9) amplitude = -0.1687 beta
    D(  189) --> V(    5) amplitude =  0.1640 beta

 Excited state  34: excitation energy (eV) =    4.3706
 Total energy for state 34:                 -3552.34613489 au
    <S**2>     :  9.1846
    Trans. Mom.:  0.4481 X   0.1312 Y   0.2224 Z
    Strength   :     0.0286386989
    S(    2) --> V(    2) amplitude =  0.2021 alpha
    S(    4) --> V(    3) amplitude =  0.1533 alpha
    D(  171) --> S(    2) amplitude =  0.1839 beta
    D(  173) --> S(    2) amplitude =  0.3599 beta
    D(  174) --> S(    2) amplitude =  0.1857 beta
    D(  177) --> S(    2) amplitude = -0.1648 beta
    D(  178) --> S(    2) amplitude =  0.2465 beta
    D(  185) --> S(    1) amplitude = -0.2093 beta
    D(  186) --> S(    1) amplitude = -0.2142 beta
    D(  186) --> V(    5) amplitude = -0.1505 beta

 Excited state  35: excitation energy (eV) =    4.3742
 Total energy for state 35:                 -3552.34600526 au
    <S**2>     :  9.4758
    Trans. Mom.: -0.3749 X  -0.1291 Y  -0.1909 Z
    Strength   :     0.0207567272
    S(    1) --> V(    3) amplitude =  0.3326 alpha
    S(    2) --> V(    3) amplitude = -0.2440 alpha
    S(    4) --> V(    3) amplitude = -0.2039 alpha
    D(  172) --> S(    3) amplitude =  0.1685 beta
    D(  173) --> S(    2) amplitude =  0.2472 beta
    D(  176) --> S(    2) amplitude = -0.1581 beta
    D(  185) --> S(    1) amplitude =  0.3022 beta
    D(  185) --> S(    3) amplitude = -0.1732 beta
    D(  185) --> V(    5) amplitude =  0.1567 beta

 Excited state  36: excitation energy (eV) =    4.4073
 Total energy for state 36:                 -3552.34478608 au
    <S**2>     :  8.8501
    Trans. Mom.:  0.4690 X   0.1119 Y   0.0361 Z
    Strength   :     0.0252465862
    D(  171) --> S(    1) amplitude = -0.2415 beta
    D(  171) --> S(    2) amplitude = -0.2426 beta
    D(  172) --> S(    2) amplitude = -0.5152 beta
    D(  176) --> S(    1) amplitude =  0.2036 beta
    D(  176) --> S(    2) amplitude =  0.4341 beta
    D(  178) --> S(    2) amplitude =  0.2177 beta

 Excited state  37: excitation energy (eV) =    4.4562
 Total energy for state 37:                 -3552.34299115 au
    <S**2>     :  8.8501
    Trans. Mom.: -0.3557 X  -0.1344 Y   0.2832 Z
    Strength   :     0.0245409218
    D(  172) --> S(    1) amplitude = -0.1579 beta
    D(  172) --> S(    2) amplitude = -0.1703 beta
    D(  172) --> S(    3) amplitude = -0.2570 beta
    D(  173) --> S(    1) amplitude =  0.4900 beta
    D(  173) --> S(    2) amplitude =  0.2001 beta
    D(  174) --> S(    1) amplitude =  0.2402 beta
    D(  175) --> S(    1) amplitude = -0.2233 beta
    D(  176) --> S(    1) amplitude = -0.4007 beta

 Excited state  38: excitation energy (eV) =    4.5079
 Total energy for state 38:                 -3552.34109191 au
    <S**2>     :  8.8131
    Trans. Mom.: -0.1866 X   0.0759 Y   0.0256 Z
    Strength   :     0.0045527371
    D(  172) --> S(    1) amplitude = -0.4294 beta
    D(  172) --> S(    2) amplitude =  0.1789 beta
    D(  172) --> S(    3) amplitude = -0.3131 beta
    D(  173) --> S(    1) amplitude = -0.1575 beta
    D(  173) --> S(    2) amplitude =  0.1750 beta
    D(  176) --> S(    1) amplitude =  0.4216 beta
    D(  176) --> S(    2) amplitude = -0.1630 beta
    D(  176) --> S(    3) amplitude =  0.2389 beta
    D(  177) --> S(    1) amplitude =  0.1695 beta
    D(  178) --> S(    2) amplitude =  0.1689 beta

 Excited state  39: excitation energy (eV) =    4.5190
 Total energy for state 39:                 -3552.34068098 au
    <S**2>     :  8.8840
    Trans. Mom.:  0.0168 X   0.1073 Y   0.0077 Z
    Strength   :     0.0013132034
    D(  172) --> S(    1) amplitude =  0.2929 beta
    D(  172) --> S(    3) amplitude = -0.3911 beta
    D(  173) --> S(    2) amplitude = -0.2131 beta
    D(  173) --> S(    3) amplitude =  0.3938 beta
    D(  174) --> S(    3) amplitude =  0.1970 beta
    D(  175) --> S(    3) amplitude = -0.1858 beta
    D(  176) --> S(    2) amplitude =  0.2683 beta
    D(  178) --> S(    3) amplitude =  0.1682 beta
    D(  186) --> S(    3) amplitude =  0.1787 beta

 Excited state  40: excitation energy (eV) =    4.5400
 Total energy for state 40:                 -3552.33991049 au
    <S**2>     :  8.9608
    Trans. Mom.: -0.1858 X  -0.3132 Y  -0.1579 Z
    Strength   :     0.0175259271
    S(    4) --> V(    1) amplitude =  0.1567 alpha
    S(    5) --> V(    1) amplitude =  0.2162 alpha
    D(  170) --> S(    3) amplitude =  0.1547 beta
    D(  171) --> S(    2) amplitude = -0.2962 beta
    D(  171) --> S(    3) amplitude =  0.3448 beta
    D(  173) --> S(    3) amplitude =  0.2591 beta
    D(  176) --> S(    3) amplitude = -0.2289 beta
    D(  185) --> S(    3) amplitude = -0.2027 beta
    D(  187) --> S(    4) amplitude = -0.1582 beta

 Excited state  41: excitation energy (eV) =    4.5498
 Total energy for state 41:                 -3552.33955174 au
    <S**2>     :  9.9889
    Trans. Mom.:  0.0221 X   0.2472 Y   0.0258 Z
    Strength   :     0.0069419850
    S(    5) --> V(    1) amplitude =  0.4808 alpha
    S(    5) --> V(    4) amplitude =  0.2925 alpha
    S(    5) --> V(    5) amplitude =  0.2322 alpha
    S(    5) --> V(    6) amplitude =  0.2881 alpha
    S(    5) --> V(    7) amplitude = -0.1708 alpha
    S(    5) --> V(    8) amplitude =  0.1893 alpha
    S(    5) --> V(   10) amplitude =  0.1991 alpha

 Excited state  42: excitation energy (eV) =    4.5767
 Total energy for state 42:                 -3552.33856255 au
    <S**2>     :  9.3905
    Trans. Mom.:  0.3120 X   0.3306 Y   0.1580 Z
    Strength   :     0.0259700319
    S(    4) --> V(    1) amplitude =  0.3095 alpha
    S(    4) --> V(    4) amplitude = -0.1866 alpha
    S(    4) --> V(    7) amplitude = -0.1725 alpha
    D(  171) --> S(    1) amplitude =  0.1503 beta
    D(  171) --> S(    2) amplitude = -0.1570 beta
    D(  172) --> S(    1) amplitude =  0.1694 beta
    D(  187) --> S(    4) amplitude =  0.3157 beta
    D(  187) --> S(    5) amplitude =  0.1884 beta
    D(  187) --> V(    1) amplitude =  0.1902 beta
    D(  189) --> S(    5) amplitude =  0.2142 beta

 Excited state  43: excitation energy (eV) =    4.5798
 Total energy for state 43:                 -3552.33844731 au
    <S**2>     :  9.6188
    Trans. Mom.: -0.0669 X  -0.0246 Y  -0.0039 Z
    Strength   :     0.0005728174
    S(    4) --> V(    1) amplitude =  0.4571 alpha
    S(    4) --> V(    4) amplitude = -0.2920 alpha
    S(    4) --> V(    6) amplitude =  0.1905 alpha
    S(    4) --> V(    7) amplitude = -0.2644 alpha
    S(    4) --> V(   10) amplitude = -0.1704 alpha
    D(  171) --> S(    2) amplitude =  0.2121 beta
    D(  171) --> S(    3) amplitude = -0.1929 beta
    D(  187) --> S(    4) amplitude = -0.1820 beta

 Excited state  44: excitation energy (eV) =    4.5974
 Total energy for state 44:                 -3552.33780278 au
    <S**2>     :  9.1101
    Trans. Mom.: -0.3652 X  -0.0979 Y  -0.3150 Z
    Strength   :     0.0272757533
    D(  171) --> S(    1) amplitude = -0.1828 beta
    D(  171) --> S(    2) amplitude =  0.1624 beta
    D(  188) --> V(    2) amplitude = -0.2264 beta
    D(  189) --> S(    5) amplitude =  0.4047 beta
    D(  189) --> V(    1) amplitude = -0.2446 beta
    D(  189) --> V(    2) amplitude = -0.1736 beta
    D(  189) --> V(    4) amplitude = -0.1643 beta
    D(  189) --> V(    5) amplitude =  0.2128 beta
    D(  189) --> V(    7) amplitude =  0.1720 beta

 Excited state  45: excitation energy (eV) =    4.6278
 Total energy for state 45:                 -3552.33668375 au
    <S**2>     :  8.9371
    Trans. Mom.:  0.5645 X  -0.1171 Y   0.0277 Z
    Strength   :     0.0377696623
    D(  171) --> S(    1) amplitude = -0.1555 beta
    D(  171) --> S(    2) amplitude =  0.1710 beta
    D(  172) --> S(    1) amplitude = -0.1825 beta
    D(  172) --> S(    3) amplitude =  0.3311 beta
    D(  173) --> S(    3) amplitude =  0.2411 beta
    D(  176) --> S(    3) amplitude = -0.3827 beta
    D(  177) --> S(    3) amplitude = -0.1602 beta
    D(  187) --> S(    4) amplitude =  0.2208 beta
    D(  187) --> S(    5) amplitude =  0.1811 beta
    D(  187) --> V(    1) amplitude =  0.1817 beta

 Excited state  46: excitation energy (eV) =    4.6430
 Total energy for state 46:                 -3552.33612596 au
    <S**2>     :  9.3180
    Trans. Mom.:  0.3544 X   0.1229 Y   0.1060 Z
    Strength   :     0.0172842172
    D(  171) --> S(    1) amplitude = -0.2798 beta
    D(  188) --> S(    5) amplitude =  0.3766 beta
    D(  188) --> V(    1) amplitude = -0.3163 beta
    D(  188) --> V(    4) amplitude = -0.2081 beta
    D(  188) --> V(    6) amplitude = -0.1879 beta
    D(  188) --> V(    7) amplitude =  0.1581 beta
    D(  189) --> V(    1) amplitude =  0.1657 beta
    D(  189) --> V(    2) amplitude = -0.2516 beta

 Excited state  47: excitation energy (eV) =    4.6553
 Total energy for state 47:                 -3552.33567252 au
    <S**2>     :  8.9442
    Trans. Mom.:  0.3346 X   0.0465 Y   0.0989 Z
    Strength   :     0.0141336425
    D(  168) --> S(    1) amplitude = -0.1653 beta
    D(  170) --> S(    1) amplitude = -0.2615 beta
    D(  171) --> S(    1) amplitude = -0.5021 beta
    D(  171) --> S(    2) amplitude = -0.2392 beta
    D(  172) --> S(    1) amplitude =  0.1762 beta
    D(  172) --> S(    2) amplitude =  0.2970 beta
    D(  176) --> S(    2) amplitude = -0.1821 beta
    D(  185) --> S(    1) amplitude =  0.1534 beta
    D(  188) --> S(    5) amplitude = -0.1565 beta

 Excited state  48: excitation energy (eV) =    4.7289
 Total energy for state 48:                 -3552.33297090 au
    <S**2>     :  9.7908
    Trans. Mom.:  0.0651 X  -0.0130 Y   0.1894 Z
    Strength   :     0.0046641095
    S(    1) --> V(   21) amplitude =  0.1546 alpha
    S(    1) --> V(   22) amplitude = -0.1761 alpha
    S(    2) --> V(   23) amplitude = -0.1664 alpha
    D(  171) --> S(    2) amplitude = -0.2588 beta
    D(  171) --> S(    3) amplitude = -0.2610 beta
    D(  173) --> S(    3) amplitude =  0.1635 beta
    D(  185) --> V(   24) amplitude = -0.1933 beta
    D(  186) --> V(   22) amplitude = -0.1640 beta

 Excited state  49: excitation energy (eV) =    4.7483
 Total energy for state 49:                 -3552.33225483 au
    <S**2>     : 10.0541
    Trans. Mom.:  0.0207 X   0.1412 Y   0.2736 Z
    Strength   :     0.0110776846
    S(    1) --> V(   23) amplitude =  0.2116 alpha
    S(    2) --> V(   22) amplitude =  0.1683 alpha
    S(    2) --> V(   23) amplitude =  0.2203 alpha
    S(    2) --> V(   25) amplitude = -0.1546 alpha
    D(  186) --> V(   25) amplitude = -0.1972 beta
    D(  188) --> V(   22) amplitude =  0.1605 beta

 Excited state  50: excitation energy (eV) =    4.7593
 Total energy for state 50:                 -3552.33185127 au
    <S**2>     :  8.8869
    Trans. Mom.: -0.0801 X  -0.1004 Y   0.1184 Z
    Strength   :     0.0035576902
    S(    1) --> V(    3) amplitude = -0.1844 alpha
    S(    4) --> V(   21) amplitude =  0.1638 alpha
    S(    4) --> V(   22) amplitude = -0.1518 alpha
    S(    4) --> V(   23) amplitude =  0.1655 alpha
    D(  171) --> S(    3) amplitude =  0.1627 beta
    D(  186) --> V(    5) amplitude = -0.1830 beta
    D(  188) --> V(   24) amplitude =  0.2195 beta
    D(  189) --> V(   19) amplitude = -0.1621 beta
    D(  189) --> V(   22) amplitude =  0.2253 beta

 Excited state  51: excitation energy (eV) =    4.7661
 Total energy for state 51:                 -3552.33160235 au
    <S**2>     :  9.1850
    Trans. Mom.:  0.5204 X   0.0041 Y   0.5179 Z
    Strength   :     0.0629398868
    S(    5) --> V(   23) amplitude =  0.2292 alpha
    D(  187) --> V(    9) amplitude = -0.1739 beta

 Excited state  52: excitation energy (eV) =    4.8075
 Total energy for state 52:                 -3552.33008216 au
    <S**2>     : 10.4613
    Trans. Mom.: -0.0085 X  -0.0390 Y   0.0787 Z
    Strength   :     0.0009159441
    D(  183) --> V(    1) amplitude = -0.2198 alpha
    D(  183) --> V(    2) amplitude = -0.3743 alpha
    D(  183) --> V(    3) amplitude = -0.1745 alpha
    D(  183) --> V(    6) amplitude =  0.2160 alpha
    D(  171) --> S(    3) amplitude =  0.1919 beta
    D(  180) --> S(    1) amplitude = -0.1613 beta
    D(  180) --> S(    4) amplitude =  0.2309 beta
    D(  180) --> V(    5) amplitude =  0.2713 beta

 Excited state  53: excitation energy (eV) =    4.8269
 Total energy for state 53:                 -3552.32936623 au
    <S**2>     :  9.4024
    Trans. Mom.:  0.2526 X  -0.1287 Y   0.2435 Z
    Strength   :     0.0165129447
    S(    2) --> V(   23) amplitude = -0.1619 alpha
    D(  170) --> S(    2) amplitude =  0.1910 beta
    D(  170) --> S(    3) amplitude =  0.1819 beta
    D(  171) --> S(    2) amplitude =  0.3121 beta
    D(  171) --> S(    3) amplitude =  0.3936 beta
    D(  185) --> S(    2) amplitude = -0.1724 beta
    D(  187) --> V(    9) amplitude =  0.1551 beta

 Excited state  54: excitation energy (eV) =    4.8363
 Total energy for state 54:                 -3552.32902159 au
    <S**2>     :  9.6853
    Trans. Mom.:  0.1622 X   0.1409 Y   0.2017 Z
    Strength   :     0.0102883398
    D(  184) --> V(    3) amplitude =  0.1723 alpha
    S(    4) --> V(    1) amplitude = -0.1504 alpha
    S(    4) --> V(    9) amplitude =  0.1731 alpha
    S(    4) --> V(   10) amplitude = -0.1753 alpha
    S(    4) --> V(   11) amplitude =  0.1793 alpha
    S(    4) --> V(   12) amplitude =  0.2252 alpha
    S(    4) --> V(   14) amplitude =  0.2332 alpha
    D(  182) --> S(    4) amplitude =  0.1606 beta
    D(  187) --> V(    9) amplitude =  0.2898 beta

 Excited state  55: excitation energy (eV) =    4.8455
 Total energy for state 55:                 -3552.32868413 au
    <S**2>     : 10.5652
    Trans. Mom.: -0.0287 X   0.0127 Y   0.0144 Z
    Strength   :     0.0001417150
    D(  184) --> V(    3) amplitude = -0.4346 alpha
    D(  184) --> V(    6) amplitude = -0.1503 alpha
    D(  188) --> V(    3) amplitude = -0.2073 alpha
    D(  181) --> S(    5) amplitude =  0.1724 beta
    D(  181) --> V(    1) amplitude =  0.1947 beta
    D(  181) --> V(    4) amplitude =  0.1585 beta
    D(  181) --> V(    5) amplitude =  0.2048 beta
    D(  181) --> V(    9) amplitude =  0.1735 beta

 Excited state  56: excitation energy (eV) =    4.8611
 Total energy for state 56:                 -3552.32811082 au
    <S**2>     :  9.2185
    Trans. Mom.:  0.5441 X   0.3931 Y   0.3875 Z
    Strength   :     0.0715376404
    S(    4) --> V(   10) amplitude =  0.1538 alpha
    S(    4) --> V(   12) amplitude = -0.1850 alpha
    S(    4) --> V(   14) amplitude = -0.1976 alpha
    D(  187) --> S(    4) amplitude =  0.2315 beta
    D(  187) --> S(    5) amplitude = -0.1807 beta
    D(  187) --> V(    1) amplitude = -0.2002 beta
    D(  187) --> V(    4) amplitude = -0.2229 beta
    D(  187) --> V(    6) amplitude = -0.1595 beta
    D(  187) --> V(    9) amplitude =  0.4872 beta

 Excited state  57: excitation energy (eV) =    4.9362
 Total energy for state 57:                 -3552.32535267 au
    <S**2>     : 10.6373
    Trans. Mom.:  0.0518 X  -0.0560 Y   0.0348 Z
    Strength   :     0.0008492912
    D(  177) --> V(    2) amplitude =  0.1691 alpha
    D(  179) --> V(    2) amplitude =  0.1961 alpha
    D(  180) --> V(    2) amplitude = -0.2232 alpha
    D(  182) --> V(    2) amplitude =  0.1517 alpha
    D(  173) --> V(    5) amplitude = -0.1855 beta
    D(  176) --> S(    4) amplitude = -0.1531 beta
    D(  176) --> V(    5) amplitude = -0.1692 beta
    D(  179) --> S(    4) amplitude =  0.1602 beta

 Excited state  58: excitation energy (eV) =    4.9407
 Total energy for state 58:                 -3552.32518626 au
    <S**2>     :  9.8878
    Trans. Mom.: -0.1294 X   0.2645 Y   0.0678 Z
    Strength   :     0.0110492686
    S(    4) --> V(    8) amplitude =  0.1779 alpha
    S(    4) --> V(    9) amplitude =  0.1647 alpha
    S(    4) --> V(   10) amplitude = -0.1694 alpha
    S(    4) --> V(   12) amplitude =  0.2068 alpha
    S(    4) --> V(   14) amplitude =  0.1590 alpha
    D(  179) --> S(    4) amplitude = -0.1589 beta
    D(  182) --> S(    4) amplitude = -0.3809 beta
    D(  182) --> S(    5) amplitude = -0.1813 beta
    D(  182) --> V(    1) amplitude = -0.2034 beta

 Excited state  59: excitation energy (eV) =    4.9903
 Total energy for state 59:                 -3552.32336310 au
    <S**2>     :  9.8790
    Trans. Mom.:  0.1973 X   0.1507 Y   0.0289 Z
    Strength   :     0.0076380078
    S(    5) --> V(    4) amplitude = -0.1599 alpha
    S(    5) --> V(    5) amplitude = -0.2598 alpha
    S(    5) --> V(    6) amplitude =  0.1769 alpha
    D(  188) --> S(    5) amplitude =  0.1521 beta
    D(  188) --> V(    2) amplitude = -0.1621 beta
    D(  188) --> V(    3) amplitude = -0.1520 beta
    D(  188) --> V(   18) amplitude = -0.2552 beta
    D(  188) --> V(   20) amplitude = -0.1636 beta
    D(  189) --> S(    5) amplitude = -0.1624 beta
    D(  189) --> V(    4) amplitude =  0.1883 beta
    D(  189) --> V(   18) amplitude =  0.2687 beta

 Excited state  60: excitation energy (eV) =    5.0022
 Total energy for state 60:                 -3552.32292426 au
    <S**2>     :  9.8850
    Trans. Mom.:  0.1192 X   0.0797 Y  -0.0062 Z
    Strength   :     0.0025237063
    S(    5) --> V(    2) amplitude = -0.1501 alpha
    S(    5) --> V(    3) amplitude =  0.1796 alpha
    S(    5) --> V(    4) amplitude =  0.2120 alpha
    S(    5) --> V(    5) amplitude =  0.4050 alpha
    S(    5) --> V(    6) amplitude = -0.2401 alpha
    S(    5) --> V(    7) amplitude =  0.1740 alpha
    S(    5) --> V(    8) amplitude =  0.2137 alpha
    S(    5) --> V(   13) amplitude = -0.2118 alpha
    D(  188) --> V(   18) amplitude = -0.1997 beta
    D(  189) --> V(   18) amplitude =  0.1883 beta

 Excited state  61: excitation energy (eV) =    5.0275
 Total energy for state 61:                 -3552.32199418 au
    <S**2>     :  9.9551
    Trans. Mom.:  0.0155 X   0.1350 Y   0.0712 Z
    Strength   :     0.0028992204
    S(    4) --> V(    2) amplitude =  0.3771 alpha
    S(    4) --> V(    4) amplitude =  0.2296 alpha
    S(    4) --> V(    5) amplitude =  0.4035 alpha
    S(    4) --> V(    6) amplitude =  0.3153 alpha
    S(    4) --> V(    7) amplitude = -0.1614 alpha
    S(    4) --> V(    8) amplitude = -0.2413 alpha
    S(    4) --> V(   11) amplitude =  0.1673 alpha
    S(    4) --> V(   14) amplitude =  0.3423 alpha

 Excited state  62: excitation energy (eV) =    5.0452
 Total energy for state 62:                 -3552.32134437 au
    <S**2>     :  9.2660
    Trans. Mom.: -0.1948 X  -0.1518 Y  -0.0515 Z
    Strength   :     0.0078654701
    D(  188) --> V(    2) amplitude = -0.2068 beta
    D(  188) --> V(    3) amplitude = -0.2633 beta
    D(  188) --> V(    4) amplitude =  0.2422 beta
    D(  189) --> S(    4) amplitude =  0.1997 beta
    D(  189) --> V(    3) amplitude = -0.1742 beta
    D(  189) --> V(    4) amplitude =  0.3744 beta
    D(  189) --> V(    6) amplitude =  0.1847 beta
    D(  189) --> V(    7) amplitude =  0.2056 beta
    D(  189) --> V(   13) amplitude = -0.1867 beta

 Excited state  63: excitation energy (eV) =    5.0618
 Total energy for state 63:                 -3552.32073424 au
    <S**2>     :  9.4881
    Trans. Mom.: -0.0764 X  -0.1414 Y  -0.0130 Z
    Strength   :     0.0032240206
    D(  188) --> S(    4) amplitude = -0.1516 beta
    D(  188) --> V(    1) amplitude =  0.1925 beta
    D(  188) --> V(    2) amplitude = -0.1806 beta
    D(  188) --> V(    4) amplitude = -0.2127 beta
    D(  188) --> V(    5) amplitude =  0.1920 beta
    D(  188) --> V(    7) amplitude = -0.1723 beta
    D(  188) --> V(   13) amplitude =  0.2151 beta
    D(  189) --> V(    2) amplitude =  0.2105 beta
    D(  189) --> V(    3) amplitude =  0.4075 beta
    D(  189) --> V(    5) amplitude = -0.1780 beta
    D(  189) --> V(    8) amplitude =  0.1619 beta

 Excited state  64: excitation energy (eV) =    5.0726
 Total energy for state 64:                 -3552.32033877 au
    <S**2>     : 10.6636
    Trans. Mom.:  0.0226 X   0.0413 Y   0.0063 Z
    Strength   :     0.0002807390
    D(  179) --> V(    3) amplitude = -0.3761 alpha
    D(  180) --> V(    3) amplitude = -0.3258 alpha
    D(  175) --> S(    1) amplitude =  0.1649 beta
    D(  175) --> S(    5) amplitude = -0.2024 beta
    D(  175) --> V(    1) amplitude = -0.2304 beta
    D(  175) --> V(    2) amplitude = -0.1528 beta
    D(  175) --> V(    4) amplitude = -0.1828 beta
    D(  175) --> V(    5) amplitude = -0.2355 beta
    D(  175) --> V(    9) amplitude = -0.1925 beta

 Excited state  65: excitation energy (eV) =    5.1038
 Total energy for state 65:                 -3552.31919251 au
    <S**2>     :  9.1113
    Trans. Mom.:  0.4186 X   0.2925 Y   0.0485 Z
    Strength   :     0.0328994079
    D(  187) --> V(   10) amplitude = -0.2016 alpha
    D(  187) --> V(   11) amplitude =  0.2109 alpha
    D(  187) --> V(   12) amplitude =  0.2408 alpha
    D(  187) --> V(   14) amplitude =  0.2477 alpha
    S(    4) --> V(   14) amplitude = -0.2039 alpha
    D(  182) --> S(    4) amplitude = -0.2390 beta
    D(  187) --> V(   18) amplitude = -0.1749 beta

 Excited state  66: excitation energy (eV) =    5.1182
 Total energy for state 66:                 -3552.31866135 au
    <S**2>     :  9.6766
    Trans. Mom.: -0.3724 X  -0.3315 Y  -0.0551 Z
    Strength   :     0.0315539805
    S(    5) --> V(   10) amplitude =  0.1895 alpha
    S(    5) --> V(   11) amplitude = -0.1687 alpha
    S(    5) --> V(   14) amplitude = -0.1891 alpha
    D(  177) --> S(    1) amplitude =  0.1640 beta
    D(  177) --> S(    2) amplitude = -0.2112 beta
    D(  177) --> S(    3) amplitude =  0.2376 beta
    D(  177) --> S(    4) amplitude =  0.1527 beta
    D(  189) --> V(   18) amplitude =  0.2198 beta
    D(  189) --> V(   20) amplitude =  0.1533 beta

 Excited state  67: excitation energy (eV) =    5.1576
 Total energy for state 67:                 -3552.31721512 au
    <S**2>     :  9.5033
    Trans. Mom.: -0.0582 X  -0.3586 Y  -0.1523 Z
    Strength   :     0.0196051997
    S(    5) --> V(    4) amplitude = -0.3313 alpha
    S(    5) --> V(    5) amplitude =  0.2136 alpha
    S(    5) --> V(    7) amplitude = -0.3017 alpha
    S(    5) --> V(   10) amplitude = -0.3314 alpha
    S(    5) --> V(   11) amplitude =  0.2446 alpha
    S(    5) --> V(   14) amplitude =  0.3555 alpha
    D(  177) --> S(    1) amplitude =  0.1583 beta
    D(  177) --> S(    3) amplitude =  0.1557 beta

 Excited state  68: excitation energy (eV) =    5.1695
 Total energy for state 68:                 -3552.31677675 au
    <S**2>     : 10.0005
[...]
 -0.5843  -0.5711  -0.5608  -0.5594  -0.5575  -0.5510  -0.5495  -0.5473
 -0.5445  -0.5389  -0.5351  -0.5332  -0.5297  -0.5273  -0.5233  -0.5211
 -0.5175  -0.5163  -0.5089  -0.5019  -0.5013  -0.4997  -0.4977  -0.4943
 -0.4882  -0.4841  -0.4824  -0.4784  -0.4769  -0.4750  -0.4709  -0.4692
 -0.4677  -0.4670  -0.4645  -0.4621  -0.4563  -0.4535  -0.4512  -0.4459
 -0.4425  -0.4377  -0.4367  -0.4347  -0.4326  -0.4306  -0.4288  -0.4207
 -0.4159  -0.4142  -0.4137  -0.4037  -0.4024  -0.4008  -0.3999  -0.3946
 -0.3922  -0.3911  -0.3857  -0.3837  -0.3813  -0.3778  -0.3762  -0.3698
 -0.3674  -0.3611  -0.3490  -0.3424  -0.3334  -0.3282  -0.3257  -0.3237
 -0.3217  -0.3186  -0.3168  -0.3158  -0.3154  -0.3046  -0.2806  -0.2799
 -0.2772  -0.2728  -0.2620  -0.2292  -0.2264
 -- Virtual --
 -0.0251  -0.0230  -0.0192   0.0121   0.0127   0.0146   0.0182   0.0192
  0.0210   0.0212   0.0240   0.0261   0.0277   0.0300   0.0319   0.0339
  0.0345   0.0356   0.0376   0.0416   0.0436   0.0449   0.0467   0.0472
  0.0487   0.0526   0.0540   0.0555   0.0565   0.0580   0.0602   0.0622
  0.0633   0.0645   0.0660   0.0683   0.0692   0.0714   0.0719   0.0736
  0.0757   0.0774   0.0791   0.0813   0.0826   0.0843   0.0869   0.0885
  0.0913   0.0919   0.0932   0.0964   0.1002   0.1006   0.1010   0.1023
  0.1031   0.1043   0.1066   0.1084   0.1098   0.1107   0.1111   0.1130
  0.1145   0.1163   0.1171   0.1188   0.1204   0.1214   0.1224   0.1241
  0.1250   0.1269   0.1276   0.1286   0.1289   0.1299   0.1308   0.1319
  0.1333   0.1346   0.1359   0.1384   0.1389   0.1405   0.1415   0.1426
  0.1441   0.1454   0.1458   0.1469   0.1490   0.1508   0.1520   0.1548
  0.1559   0.1565   0.1572   0.1576   0.1584   0.1616   0.1623   0.1628
  0.1631   0.1665   0.1675   0.1682   0.1709   0.1718   0.1722   0.1728
  0.1757   0.1765   0.1771   0.1774   0.1792   0.1816   0.1821   0.1840
  0.1856   0.1870   0.1885   0.1898   0.1916   0.1935   0.1943   0.1949
  0.1965   0.1972   0.1979   0.1990   0.2009   0.2026   0.2039   0.2060
  0.2085   0.2092   0.2097   0.2113   0.2129   0.2137   0.2142   0.2177
  0.2182   0.2215   0.2228   0.2233   0.2248   0.2264   0.2282   0.2291
  0.2319   0.2326   0.2330   0.2348   0.2355   0.2379   0.2379   0.2405
  0.2425   0.2448   0.2451   0.2470   0.2486   0.2501   0.2511   0.2522
  0.2535   0.2545   0.2547   0.2565   0.2581   0.2590   0.2598   0.2610
  0.2614   0.2633   0.2654   0.2663   0.2676   0.2688   0.2692   0.2710
  0.2721   0.2737   0.2738   0.2747   0.2766   0.2773   0.2791   0.2810
  0.2818   0.2825   0.2840   0.2857   0.2863   0.2878   0.2887   0.2905
  0.2918   0.2928   0.2938   0.2941   0.2973   0.2978   0.3001   0.3010
  0.3015   0.3022   0.3033   0.3043   0.3050   0.3066   0.3080   0.3092
  0.3104   0.3112   0.3122   0.3132   0.3150   0.3166   0.3174   0.3189
  0.3210   0.3221   0.3236   0.3242   0.3253   0.3268   0.3283   0.3303
  0.3314   0.3328   0.3342   0.3347   0.3361   0.3368   0.3382   0.3403
  0.3406   0.3426   0.3448   0.3457   0.3469   0.3472   0.3486   0.3519
  0.3531   0.3543   0.3547   0.3559   0.3569   0.3583   0.3595   0.3602
  0.3618   0.3636   0.3650   0.3665   0.3676   0.3699   0.3708   0.3727
  0.3745   0.3751   0.3760   0.3784   0.3796   0.3804   0.3808   0.3832
  0.3843   0.3869   0.3879   0.3886   0.3894   0.3899   0.3937   0.3949
  0.3957   0.3967   0.3982   0.3996   0.4008   0.4020   0.4046   0.4061
  0.4073   0.4081   0.4113   0.4116   0.4122   0.4144   0.4172   0.4184
  0.4191   0.4204   0.4220   0.4237   0.4246   0.4255   0.4274   0.4291
  0.4299   0.4332   0.4342   0.4363   0.4367   0.4380   0.4402   0.4410
  0.4441   0.4448   0.4464   0.4487   0.4499   0.4506   0.4515   0.4550
  0.4556   0.4584   0.4606   0.4611   0.4627   0.4633   0.4642   0.4673
  0.4686   0.4698   0.4729   0.4736   0.4761   0.4764   0.4774   0.4787
  0.4808   0.4829   0.4855   0.4867   0.4873   0.4877   0.4907   0.4916
  0.4938   0.4941   0.4959   0.4966   0.4982   0.5000   0.5021   0.5042
  0.5046   0.5059   0.5076   0.5097   0.5116   0.5126   0.5153   0.5169
  0.5181   0.5207   0.5225   0.5235   0.5252   0.5267   0.5292   0.5301
  0.5315   0.5344   0.5354   0.5371   0.5382   0.5389   0.5419   0.5426
  0.5465   0.5487   0.5495   0.5501   0.5519   0.5528   0.5552   0.5557
  0.5581   0.5594   0.5611   0.5626   0.5639   0.5666   0.5688   0.5706
  0.5728   0.5744   0.5748   0.5770   0.5784   0.5806   0.5815   0.5835
  0.5860   0.5865   0.5892   0.5899   0.5902   0.5953   0.5960   0.5963
  0.5977   0.5997   0.6019   0.6034   0.6045   0.6068   0.6074   0.6093
  0.6112   0.6114   0.6141   0.6160   0.6175   0.6204   0.6228   0.6244
  0.6251   0.6262   0.6277   0.6296   0.6310   0.6320   0.6340   0.6349
  0.6358   0.6394   0.6402   0.6419   0.6446   0.6460   0.6472   0.6487
  0.6499   0.6526   0.6552   0.6561   0.6574   0.6579   0.6603   0.6616
  0.6625   0.6640   0.6664   0.6679   0.6697   0.6715   0.6720   0.6743
  0.6758   0.6785   0.6797   0.6805   0.6821   0.6841   0.6863   0.6879
  0.6885   0.6915   0.6921   0.6932   0.6943   0.6956   0.6977   0.6996
  0.7009   0.7022   0.7026   0.7039   0.7062   0.7075   0.7087   0.7102
  0.7120   0.7135   0.7148   0.7178   0.7192   0.7199   0.7227   0.7238
  0.7244   0.7264   0.7286   0.7301   0.7322   0.7346   0.7356   0.7377
  0.7392   0.7407   0.7436   0.7443   0.7459   0.7467   0.7479   0.7497
  0.7503   0.7518   0.7546   0.7552   0.7583   0.7594   0.7600   0.7633
  0.7637   0.7646   0.7673   0.7703   0.7709   0.7728   0.7736   0.7742
  0.7764   0.7773   0.7816   0.7831   0.7843   0.7862   0.7866   0.7885
  0.7904   0.7917   0.7938   0.7949   0.7974   0.7986   0.7990   0.8003
  0.8039   0.8057   0.8067   0.8080   0.8103   0.8107   0.8120   0.8147
  0.8160   0.8198   0.8207   0.8234   0.8251   0.8287   0.8291   0.8305
  0.8319   0.8338   0.8341   0.8365   0.8380   0.8405   0.8433   0.8455
  0.8459   0.8492   0.8512   0.8537   0.8552   0.8577   0.8589   0.8605
  0.8619   0.8653   0.8655   0.8681   0.8687   0.8715   0.8732   0.8766
  0.8780   0.8793   0.8815   0.8833   0.8861   0.8876   0.8909   0.8945
  0.8953   0.8973   0.8992   0.9006   0.9025   0.9035   0.9046   0.9076
  0.9102   0.9106   0.9134   0.9147   0.9169   0.9182   0.9209   0.9223
  0.9260   0.9274   0.9285   0.9337   0.9355   0.9369   0.9394   0.9407
  0.9438   0.9466   0.9485   0.9497   0.9498   0.9536   0.9549   0.9569
  0.9577   0.9600   0.9646   0.9662   0.9677   0.9690   0.9729   0.9741
  0.9757   0.9764   0.9782   0.9817   0.9868   0.9883   0.9908   0.9936
  0.9947   0.9950   1.0009   1.0016   1.0040   1.0085   1.0117   1.0128
  1.0164   1.0199   1.0214   1.0245   1.0282   1.0303   1.0316   1.0332
  1.0350   1.0388   1.0421   1.0426   1.0438   1.0471   1.0513   1.0528
  1.0558   1.0569   1.0622   1.0633   1.0644   1.0686   1.0704   1.0740
  1.0766   1.0800   1.0830   1.0836   1.0859   1.0864   1.0915   1.0948
  1.0969   1.0994   1.1011   1.1047   1.1065   1.1093   1.1123   1.1135
  1.1190   1.1207   1.1217   1.1257   1.1296   1.1308   1.1360   1.1392
  1.1444   1.1468   1.1488   1.1508   1.1531   1.1569   1.1588   1.1625
  1.1638   1.1660   1.1693   1.1724   1.1748   1.1762   1.1786   1.1844
  1.1873   1.1903   1.1924   1.1976   1.1998   1.2036   1.2066   1.2076
  1.2149   1.2158   1.2180   1.2209   1.2236   1.2294   1.2300   1.2342
  1.2360   1.2363   1.2436   1.2472   1.2525   1.2555   1.2584   1.2604
  1.2624   1.2642   1.2693   1.2769   1.2777   1.2818   1.2870   1.2875
  1.2916   1.2938   1.2971   1.2994   1.3020   1.3047   1.3056   1.3105
  1.3141   1.3180   1.3207   1.3219   1.3236   1.3280   1.3301   1.3342
  1.3369   1.3380   1.3425   1.3449   1.3469   1.3482   1.3550   1.3598
  1.3619   1.3625   1.3683   1.3699   1.3727   1.3784   1.3793   1.3823
  1.3864   1.3916   1.3932   1.3944   1.3963   1.4002   1.4094   1.4128
  1.4153   1.4165   1.4200   1.4227   1.4263   1.4301   1.4347   1.4352
  1.4372   1.4379   1.4433   1.4464   1.4511   1.4513   1.4526   1.4560
  1.4648   1.4666   1.4702   1.4731   1.4748   1.4778   1.4828   1.4859
  1.4883   1.4899   1.4920   1.4998   1.5045   1.5078   1.5101   1.5122
  1.5140   1.5153   1.5174   1.5221   1.5275   1.5293   1.5302   1.5360
  1.5386   1.5429   1.5455   1.5500   1.5519   1.5536   1.5576   1.5610
  1.5656   1.5666   1.5687   1.5712   1.5745   1.5807   1.5821   1.5828
  1.5887   1.5897   1.5937   1.5982   1.5990   1.6052   1.6068   1.6132
  1.6161   1.6175   1.6200   1.6239   1.6250   1.6261   1.6305   1.6336
  1.6367   1.6380   1.6436   1.6446   1.6463   1.6500   1.6534   1.6546
  1.6603   1.6620   1.6633   1.6651   1.6673   1.6742   1.6774   1.6797
  1.6829   1.6869   1.6895   1.6915   1.6942   1.6950   1.6971   1.7001
  1.7063   1.7091   1.7101   1.7115   1.7120   1.7159   1.7207   1.7227
  1.7281   1.7303   1.7327   1.7344   1.7351   1.7378   1.7406   1.7417
  1.7461   1.7487   1.7514   1.7543   1.7597   1.7623   1.7674   1.7688
  1.7727   1.7767   1.7774   1.7811   1.7825   1.7856   1.7877   1.7930
  1.7943   1.7962   1.7994   1.8003   1.8041   1.8059   1.8094   1.8117
  1.8166   1.8185   1.8229   1.8237   1.8262   1.8273   1.8314   1.8328
  1.8367   1.8394   1.8435   1.8455   1.8513   1.8540   1.8556   1.8587
  1.8594   1.8627   1.8673   1.8688   1.8715   1.8761   1.8792   1.8826
  1.8857   1.8902   1.8918   1.8965   1.9000   1.9013   1.9035   1.9095
  1.9118   1.9148   1.9163   1.9195   1.9250   1.9267   1.9300   1.9315
  1.9393   1.9413   1.9426   1.9468   1.9488   1.9510   1.9532   1.9555
  1.9598   1.9617   1.9632   1.9682   1.9705   1.9721   1.9747   1.9752
  1.9781   1.9801   1.9846   1.9874   1.9892   1.9913   1.9961   1.9973
  2.0007   2.0021   2.0036   2.0067   2.0084   2.0110   2.0129   2.0171
  2.0213   2.0233   2.0267   2.0318   2.0323   2.0360   2.0390   2.0393
  2.0424   2.0472   2.0475   2.0489   2.0569   2.0588   2.0608   2.0656
  2.0678   2.0714   2.0746   2.0747   2.0781   2.0814   2.0826   2.0847
  2.0914   2.0951   2.0958   2.0973   2.1005   2.1029   2.1056   2.1104
  2.1108   2.1137   2.1163   2.1189   2.1214   2.1247   2.1276   2.1287
  2.1308   2.1339   2.1360   2.1379   2.1419   2.1452   2.1463   2.1505
  2.1518   2.1553   2.1585   2.1600   2.1651   2.1674   2.1703   2.1737
  2.1768   2.1791   2.1827   2.1862   2.1891   2.1940   2.1984   2.2009
  2.2023   2.2049   2.2069   2.2107   2.2122   2.2161   2.2199   2.2239
  2.2273   2.2305   2.2312   2.2339   2.2399   2.2415   2.2450   2.2495
  2.2532   2.2558   2.2590   2.2631   2.2655   2.2683   2.2700   2.2733
  2.2794   2.2826   2.2859   2.2878   2.2938   2.2965   2.2992   2.3005
  2.3045   2.3062   2.3087   2.3139   2.3203   2.3227   2.3250   2.3279
  2.3329   2.3376   2.3391   2.3419   2.3439   2.3460   2.3520   2.3535
  2.3590   2.3621   2.3627   2.3671   2.3720   2.3781   2.3799   2.3815
  2.3913   2.3933   2.3966   2.4053   2.4067   2.4146   2.4156   2.4211
  2.4235   2.4253   2.4264   2.4305   2.4328   2.4406   2.4450   2.4505
  2.4527   2.4572   2.4606   2.4644   2.4663   2.4709   2.4743   2.4816
  2.4863   2.4902   2.4961   2.4979   2.5061   2.5107   2.5148   2.5193
  2.5248   2.5305   2.5326   2.5378   2.5409   2.5498   2.5542   2.5551
  2.5618   2.5654   2.5679   2.5746   2.5790   2.5835   2.5866   2.5890
  2.5936   2.5944   2.5963   2.6026   2.6104   2.6139   2.6189   2.6261
  2.6295   2.6297   2.6346   2.6360   2.6410   2.6450   2.6484   2.6522
  2.6569   2.6607   2.6655   2.6716   2.6771   2.6814   2.6879   2.6960
  2.6989   2.7047   2.7117   2.7142   2.7195   2.7228   2.7297   2.7310
  2.7380   2.7428   2.7465   2.7498   2.7600   2.7652   2.7668   2.7679
  2.7738   2.7768   2.7833   2.7878   2.7955   2.7967   2.8011   2.8062
  2.8084   2.8136   2.8172   2.8187   2.8232   2.8266   2.8342   2.8373
  2.8496   2.8506   2.8545   2.8568   2.8614   2.8637   2.8682   2.8727
  2.8739   2.8831   2.8925   2.8951   2.9002   2.9095   2.9146   2.9216
  2.9255   2.9277   2.9338   2.9408   2.9501   2.9528   2.9609   2.9673
  2.9741   2.9784   2.9865   2.9974   3.0080   3.0241   3.0323   3.0353
  3.0427   3.0518   3.0579   3.0612   3.0718   3.0793   3.0836   3.0868
  3.1006   3.1123   3.1169   3.1215   3.1279   3.1384   3.1506   3.1640
  3.1795   3.2004   3.2099   3.2261   3.2316   3.2506   3.2540   3.2781
  3.2836   3.3144   3.3258   3.3312   3.3436   3.3488   3.3603   3.3746
  3.4005   3.4084   3.4114   3.4219   3.4248   3.4428   3.4536   3.4729
  3.4844   3.4955   3.5062   3.5212   3.5403   3.5457   3.5672   3.5764
  3.5848   3.5980   3.6004   3.6064   3.6145   3.6213   3.6266   3.6344
  3.6477   3.6551   3.6588   3.6629   3.6657   3.6810   3.6923   3.6956
  3.7130   3.7205   3.7291   3.7359   3.7420   3.7469   3.7643   3.7661
  3.7873   3.7910   3.7979   3.8023   3.8198   3.8224   3.8476   3.8533
  3.8654   3.8683   3.8713   3.8851   3.8896   3.9018   3.9101   3.9298
  3.9409   3.9509   3.9659   3.9753   3.9957   4.0028   4.0244   4.0482
  4.0684   4.0816   4.1012   4.1168   4.1213   4.1395   4.1532   4.1723
  4.2042   4.2578   4.3287   4.3488   4.4077   4.5991   4.6219   4.6988
  4.7280   4.8360   4.8967
 --------------------------------------------------------------
 
          Ground-State Mulliken Net Atomic Charges

     Atom                 Charge (a.u.)    Spin (a.u.)
  --------------------------------------------------------
      1 C                     0.766939      -0.027559
      2 C                     1.180274       0.032886
      3 C                     1.552649       0.004463
      4 C                     0.912055       0.000111
      5 C                     0.664364       0.011850
      6 C                     0.320379      -0.006876
      7 H                    -1.771358       0.001260
      8 O                    -0.976934       0.130314
      9 C                    -0.051294      -0.001643
     10 O                    -0.837924       0.001444
     11 N                     0.008368      -0.000066
     12 H                     0.012709      -0.000278
     13 C                     1.109961      -0.000060
     14 H                    -0.559690       0.000015
     15 H                    -0.426332       0.000002
     16 C                     1.174908       0.000009
     17 H                    -0.527966       0.000010
     18 H                    -0.514767      -0.000017
     19 C                     1.653972      -0.000070
     20 H                    -0.574331      -0.000151
     21 H                    -0.589382       0.000001
     22 N                    -0.524871      -0.000161
     23 H                    -0.024694      -0.000002
     24 C                     1.273733      -0.000021
     25 H                    -0.475921      -0.000632
     26 H                    -0.568029      -0.000040
     27 C                     1.469561       0.001047
     28 H                    -0.661372      -0.000011
     29 H                    -1.095731       0.001171
     30 C                     1.201192       0.001567
     31 H                    -0.598577       0.000129
     32 H                    -0.465530       0.000038
     33 C                     1.417449      -0.001236
     34 H                    -0.622396      -0.002122
     35 H                    -0.616677       0.000354
     36 N                    -0.094033       0.004587
     37 H                    -0.133631       0.000579
     38 C                     0.396649      -0.001333
     39 O                    -0.491440       0.077727
     40 C                     1.953863       0.025812
     41 H                    -1.247605      -0.000551
     42 C                     1.329500       0.011518
     43 H                    -0.368600       0.000390
     44 H                    -0.736362      -0.000092
     45 C                     0.781064      -0.001994
     46 O                    -0.893113       0.000382
     47 N                     0.468235      -0.000149
     48 C                     1.228945       0.000644
     49 H                    -0.336513       0.001535
     50 C                     1.665691      -0.000099
     51 H                    -0.609801       0.000006
     52 H                    -0.651062      -0.000039
     53 C                     0.964747       0.000041
     54 H                    -0.552450      -0.000001
     55 H                    -0.919997      -0.000284
     56 C                     1.137561      -0.000034
     57 H                    -0.568007       0.000011
     58 H                    -0.581472      -0.000198
     59 H                    -0.453172       0.000001
     60 H                    -0.610731      -0.000000
     61 C                    -0.150250      -0.003718
     62 C                     1.788705       0.005871
     63 O                    -0.899005       0.000116
     64 C                     1.131880       0.002664
     65 C                     1.075725       0.029732
     66 C                     0.729884       0.016740
     67 C                     0.300708      -0.011357
     68 C                    -0.038277      -0.019038
     69 H                    -1.125548       0.000146
     70 O                    -1.165074       0.146159
     71 C                    -0.990742      -0.020020
     72 O                    -0.928885       0.080436
     73 H                    -1.035612      -0.000478
     74 O                    -0.996034       0.151747
     75 H                    -1.317503       0.000382
     76 O                    -1.057841       0.122011
     77 Fe                    1.918808       4.233641
     78 N                    -0.263066       0.000018
     79 H                    -0.040481       0.000004
     80 N                     0.245708       0.001119
     81 H                    -0.142262      -0.000168
     82 C                     1.032978      -0.000088
     83 H                    -0.474688       0.000003
     84 H                    -0.611553       0.000040
     85 C                     1.183424       0.000037
     86 H                    -0.468928       0.000026
     87 H                    -0.402522       0.000002
     88 C                     1.552375      -0.000044
     89 H                    -0.639344       0.000005
     90 H                    -0.595817      -0.000063
     91 H                    -1.415296       0.000021
     92 H                    -1.114472      -0.000129
  --------------------------------------------------------
  Sum of atomic charges =    -2.000000
  Sum of spin   charges =     5.000000

 -----------------------------------------------------------------
                    Cartesian Multipole Moments
 -----------------------------------------------------------------
    Charge (ESU x 10^10)
                -9.6064
    Dipole Moment (Debye)
         X      -4.1686      Y       8.2677      Z      21.6493
       Tot      23.5462
    Quadrupole Moments (Debye-Ang)
        XX    -447.8263     XY      14.7698     YY    -340.2340
        XZ      34.3552     YZ       1.1057     ZZ    -347.8708
    Octopole Moments (Debye-Ang^2)
       XXX    -167.6551    XXY     152.5163    XYY     107.0281
       YYY      51.5675    XXZ     827.0631    XYZ    -127.4958
       YYZ     255.0008    XZZ    -214.3085    YZZ      -3.5607
       ZZZ     538.3467
    Hexadecapole Moments (Debye-Ang^3)
      XXXX  -54514.5083   XXXY     634.5421   XXYY   -9452.2776
      XYYY    1085.9574   YYYY   -5993.6636   XXXZ    3200.4134
      XXYZ    -800.9000   XYYZ     241.0747   YYYZ      36.5035
      XXZZ   -9419.7470   XYZZ     731.8601   YYZZ   -2230.8436
      XZZZ    1157.2570   YZZZ    -195.7943   ZZZZ   -5874.5985
 -----------------------------------------------------------------
 Total job time:  672859.67s(wall), 11819636.05s(cpu) 
 Wed Mar  6 06:22:33 2024

        *************************************************************
        *                                                           *
        *  Thank you very much for using Q-Chem.  Have a nice day.  *
        *                                                           *
        *************************************************************


